% Model:              Circle_vs_rectangle.mph
% Version:            COMSOL 6.1.0.357
% Date:               Feb 12 2025, 11:22
% Dimension:          2
% Nodes:              7829
% Expressions:        1
% Description:        Dependent variable u
% Length unit:        m
% X                       Y                        u (1) @ t=10000
-0.36050454682558625      -3.9951125420832003      1.0000000000032192
-0.36475487814111485      -3.997811726217864       1.000000000003219
-0.3599999999999999       -3.9999999999999996      1.0000000000032192
-0.36575132114001624      -3.993738199517392       1.000000000003219
-0.3621393708731342       -3.989937449335369       1.0000000000032192
-0.36460833858208674      -4.0019307872145236      1.000000000003219
-0.3605045466404335       -4.004887457020113       1.0000000000032194
-0.36497932252673077      -3.984652653658286       1.000000000003219
-0.3682366309240792       -3.989465636955499       1.000000000003219
-0.36591217280146854      -4.005976890441483       1.000000000003219
-0.3621393698533808       -4.010062548267391       1.0000000000032194
-0.371281778226924        -3.9852927872266597      1.000000000003219
-0.3689983076690025       -3.9793764663874356      1.000000000003219
-0.36497931999944544      -4.01534734245057        1.0000000000032192
-0.3683703549278125       -4.010245279323758       1.000000000003219
-0.37604446516640516      -3.981045674914317       1.000000000003219
-0.3741450228012629       -3.9741552488463188      1.000000000003219
-0.36899830301368686      -4.02062352828683        1.000000000003219
-0.37194148901547325      -4.0146419123968435      1.000000000003219
-0.3816903530760645       -3.976766602653766       1.0000000000032188
-0.38038824920428516      -3.9689899196207303      1.0000000000032188
-0.37414501543361817      -4.025844744440948       1.000000000003219
-0.37616075023343015      -4.018907135049954       1.000000000003219
-0.38832629589877227      -3.9724661132987644      1.0000000000032185
-0.38772901187581427      -3.9638609409004433      1.0000000000032185
-0.38038823853108206      -4.031010072293878       1.0000000000032188
-0.38188630595115564      -4.023210156230519       1.0000000000032188
-0.39624756659240284      -3.9682853400417417      1.0000000000032185
-0.39619797940042983      -3.9587426443011364      1.0000000000032183
-0.3885895247785123       -4.027447786225381       1.0000000000032188
-0.38772899725684945      -4.036139049623443       1.0000000000032185
-0.40533906107380524      -3.964120137989282       1.000000000003218
-0.40585425263215025      -3.95360739094695        1.0000000000032176
-0.3963781024130479       -4.031643249924973       1.0000000000032185
-0.3961986817201982       -4.04125775317538        1.0000000000032185
-0.4157038574156984       -3.9599791532469233      1.0000000000032176
-0.4167746380736605       -3.9484317194174614      1.0000000000032174
-0.4054335852682678       -4.035812839199271       1.000000000003218
-0.4058543923608039       -4.046392679118331       1.0000000000032179
-0.4273958121722912       -3.955861438300273       1.0000000000032168
-0.4290590682668565       -3.943192652110928       1.0000000000032163
-0.4157862067842289       -4.039936025648711       1.0000000000032176
-0.41677511232865466      -4.051568493623337       1.0000000000032172
-0.4405075061979968       -3.9517869609081644      1.0000000000032159
-0.4428235414883203       -3.937870664100448       1.0000000000032154
-0.42745620264782236      -4.044015902963634       1.000000000003217
-0.42905932663752644      -4.056807452747305       1.0000000000032165
-0.4551751243429703       -3.947761555329507       1.0000000000032145
-0.45820318140547567      -3.9324478695085108      1.000000000003214
-0.44056916903416193      -4.04805184800346        1.000000000003216
-0.4428238427535765       -4.06212944709443        1.0000000000032156
-0.47158407562170995      -3.943745333398906       1.0000000000032132
-0.4753513482991429       -3.9269083425128324      1.0000000000032123
-0.45532919816399114      -4.05209931629922        1.000000000003215
-0.45820350402581844      -4.067552239350733       1.0000000000032143
-0.48990718389818155      -3.939707037645025       1.0000000000032114
-0.4944402208776997       -3.921237951242226       1.0000000000032103
-0.4719640072220761       -4.056359281702452       1.0000000000032132
-0.47535155807028306      -4.073091722462846       1.0000000000032125
-0.5101588405377755       -3.935637628225214       1.0000000000032088
-0.5156632482471096       -3.915423841130992       1.0000000000032074
-0.4899660995155105       -4.060309911630625       1.0000000000032114
-0.4944405188919292       -4.078762133772991       1.0000000000032103
-0.5325114381839127       -3.9317464752879716      1.000000000003206
-0.5392353996392917       -3.90945476155696        1.0000000000032039
-0.510474236933884        -4.064365515548771       1.000000000003209
-0.5156633988848851       -4.084576198548714       1.0000000000032074
-0.5572947260296331       -3.927735288914366       1.0000000000032017
-0.5653956705371195       -3.9033208514050295      1.0000000000031994
-0.5330913166510524       -4.068491096419341       1.0000000000032057
-0.5392355495335828       -4.090545274974042       1.0000000000032039
-0.5849054700445352       -3.9237940361098373      1.0000000000031968
-0.5944099837966325       -3.8970135439491695      1.000000000003194
-0.5581624907385494       -4.072540672193986       1.0000000000032012
-0.565396200947425        -4.096679268373608       1.0000000000031994
-0.6157538946658637       -3.9198544885928484      1.0000000000031901
-0.6265736962986574       -3.890525732895175       1.0000000000031868
-0.5858298285219068       -4.0761180922598435      1.0000000000031963
-0.5944108261822642       -4.102986632501846       1.000000000003194
-0.6499012050286447       -3.9160440983125446      1.0000000000031823
-0.662211113271913        -3.883852588867179       1.000000000003178
-0.6168149253058933       -4.0797723233872265      1.0000000000031901
-0.6265739420011075       -4.109474314873723       1.0000000000031868
-0.6877006967701463       -3.9125929411637568      1.0000000000031724
-0.7016842518378446       -3.876990687720136       1.0000000000031668
-0.6517884714295735       -4.083737796895778       1.0000000000031817
-0.6622116156993504       -4.11614750181899        1.000000000003178
-0.7300991925498194       -3.9092159155338186      1.0000000000031595
-0.7453925085439735       -3.8699391310425493      1.000000000003153
-0.6894047814872747       -4.0872271671242935      1.000000000003172
-0.7016847579674093       -4.123009397081723       1.0000000000031668
-0.7770982831892623       -3.9051913502692064      1.000000000003144
-0.7937769261841355       -3.862699851868912       1.0000000000031357
-0.7309846551112299       -4.091628189387566       1.0000000000031593
-0.7453927431814042       -4.1300609054323125      1.0000000000031528
-0.8284275122681957       -3.901547649112417       1.0000000000031244
-0.8473268058258037       -3.855277805207863       1.000000000003114
-0.7765569062957183       -4.095978190225224       1.000000000003144
-0.7937773209474724       -4.1373002050147125      1.0000000000031355
-0.8837239104857462       -3.899174382973474       1.0000000000031004
-0.9065814587446693       -3.847682086035383       1.0000000000030875
-0.8264731969558939       -4.099012199761825       1.0000000000031248
-0.8473269534811636       -4.144722214487513       1.000000000003114
-0.9457796032060122       -3.8964922506328747      1.0000000000030707
-0.9721384382203724       -3.8399263340662815      1.000000000003054
-0.8828302085745601       -4.101726123492606       1.0000000000031006
-0.9065816831775904       -4.152317941625353       1.0000000000030875
-1.015368521729524        -3.8924726084415737      1.0000000000030331
-1.0446572059878374       -3.8320300355499963      1.000000000003013
-0.9464825689096917       -4.105633476079606       1.0000000000030704
-0.9721384767788455       -4.160073670314083       1.000000000003054
-1.090308166326643        -3.8899396121567893      1.000000000002988
-1.1248673601362358       -3.8240195586962327      1.0000000000029623
-1.017176438095101        -4.11016899238502        1.0000000000030322
-1.0446571755226668       -4.16796996126971        1.0000000000030131
-1.1765805908343223       -3.889657633202735       1.00000000000293
-1.2135742014925996       -3.815929871187925       1.0000000000028995
-1.0945064330275591       -4.112359752092162       1.0000000000029858
-1.124867225402904        -4.175980428429727       1.0000000000029623
-1.26692124548052         -3.8836121326013906      1.000000000002862
-1.3116688910629188       -3.8078062519074245      1.0000000000028217
-1.1812885887623241       -4.115388026093298       1.0000000000029265
-1.213574397569753        -4.1840701458768566      1.0000000000028995
-1.358842779091531        -3.8796581588347774      1.000000000002785
-1.4194484017595654       -3.799755501144006       1.0000000000027263
-1.2740448567035085       -4.118337410835274       1.0000000000028564
-1.3116693940868118       -4.192193787718464       1.0000000000028217
-1.4682354305813656       -3.8772936202388566      1.0000000000026839
-1.5321695046854364       -3.7922038253065407      1.000000000002615
-1.3756569362326172       -4.117681596781488       1.000000000002771
-1.4194483320063565       -4.200244493918751       1.0000000000027263
-1.5785112306267453       -3.873081388195707       1.0000000000025706
-1.644941339840208        -3.7854446674637274      1.0000000000024925
-1.4867322730724997       -4.123422196742575       1.0000000000026656
-1.5321693617290466       -4.207796165637924       1.000000000002615
-1.6909279205431578       -3.8688858840534706      1.0000000000024436
-1.7577545500016678       -3.779406336160156       1.0000000000023581
-1.5998321726068585       -4.126706963270066       1.0000000000025475
-1.6449414687787585       -4.214555339838807       1.0000000000024925
-1.8048749371806128       -3.864324714284868       1.000000000002303
-1.8706013163810988       -3.7740319444736894      1.0000000000022125
-1.7133159566672893       -4.129975060610945       1.0000000000024174
-1.7577544926258504       -4.220593660942397       1.0000000000023581
-1.9211327181183482       -3.8589380237066604      1.0000000000021478
-1.9834755695521813       -3.7692757726250123      1.0000000000020555
-1.8272470679526653       -4.1332299892198         1.000000000002274
-1.8706011080706366       -4.225968046189823       1.0000000000022125
-2.0413356389479094       -3.852898369575298       1.0000000000019746
-2.096372978912185        -3.765100769802313       1.0000000000018876
-1.9834755096113614       -4.230724225006781       1.0000000000020555
-1.941335944944483        -4.137475961236629       1.0000000000021199
-2.1563049404646746       -3.8501751690570827      1.000000000001798
-2.2092895486627757       -3.76147683018165        1.000000000001709
-2.0532182467465305       -4.144646528967198       1.0000000000019573
-2.0963728933782884       -4.234899227247034       1.0000000000018876
-2.2672947095740565       -3.843028654149037       1.0000000000016165
-2.3222215360970333       -3.7583794922380855      1.0000000000015201
-2.161519770096942        -4.154079587989049       1.0000000000017895
-2.2092893365096056       -4.238523163511554       1.000000000001709
-2.379693697576198        -3.8404153984414817      1.0000000000014229
-2.4351660963593997       -3.7557889692533766      1.0000000000013216
-2.2701309822532734       -4.159657203337579       1.0000000000016114
-2.322221451120771        -4.241620505624327       1.0000000000015203
-2.4926457123160533       -3.8380723322124006      1.0000000000012192
-2.548120907128639        -3.7536894630437225      1.000000000001114
-2.3810323770709894       -4.162559079386561       1.0000000000014209
-2.435166325435244        -4.244211035497862       1.0000000000013216
-2.6053305135824707       -3.8366123127473966      1.0000000000010072
-2.661083799995964        -3.752068651589345       1.000000000000898
-2.492974754976556        -4.164294546693995       1.0000000000012186
-2.5481213732357935       -4.246310544624538       1.000000000001114
-2.718095133093198        -3.8356322547565345      1.0000000000007871
-2.7740526794437734       -3.750917305597454       1.0000000000006743
-2.605401114795889        -4.165618106356077       1.0000000000010072
-2.6610843595276577       -4.247931355269601       1.000000000000898
-2.8309431719232094       -3.8350178002371416      1.0000000000005598
-2.887025457925141        -3.7502290141429224      1.0000000000004439
-2.718084174944654        -4.166588537536605       1.0000000000007871
-2.7740531218716824       -4.249082698001513       1.0000000000006743
-2.9438134879972044       -3.834717626707627       1.0000000000003262
-3                        -3.75                    1.0000000000002078
-2.830892402396264        -4.167223848092931       1.0000000000005598
-2.887025626602713        -4.249770986541254       1.0000000000004439
-3.0566663383276698       -3.8347156770369293      1.0000000000000873
-3.1129743733972997       -3.7502290134587457      0.9999999999999675
-2.943753387172235        -4.16753634092687        1.0000000000003262
-3                        -4.25                    1.0000000000002078
-3.1694907726637385       -3.8350085246038756      0.9999999999998451
-3.2259468781283434       -3.750917301998486       0.9999999999997234
-3.0566213718464876       -4.167534242395472       1.0000000000000873
-3.112974542074872        -4.249770985857076       0.9999999999999675
-3.2823027421404265       -3.835623915490214       0.9999999999995994
-3.33891564047238         -3.7520686447304006      0.9999999999994774
-3.169461705577749        -4.167217261644195       0.9999999999998451
-3.225947320556253        -4.249082694402545       0.9999999999997233
-3.3949938911709823       -3.836524771694677       0.9999999999993526
-3.4518786267642567       -3.7536894553754614      0.9999999999992308
-3.2822449377967575       -4.166582972705178       0.9999999999995995
-3.3389162000040744       -4.247931348410654       0.9999999999994774
-3.5074755877486834       -3.8377475971607637      0.9999999999991066
-3.564833674564821        -3.755788964502139       0.9999999999989845
-3.3949355375233807       -4.165629112088097       0.9999999999993533
-3.451879092871412        -4.246310536956275       0.9999999999992308
-3.6195792767633113       -3.839443428093837       0.9999999999988624
-3.677778548879306        -3.758379494375675       0.9999999999987409
-3.5074747801350235       -4.16435711515367        0.9999999999991068
-3.5648339036406633       -4.244211030746622       0.9999999999989848
-3.7312127602049845       -3.8420104125523054      0.9999999999986224
-3.790710663490483        -3.7614768364884474      0.9999999999985002
-3.619804703056762        -4.162799610430995       0.9999999999988622
-3.67777846390304         -4.241620507761911       0.9999999999987409
-3.840960228352988        -3.8454139201778985      0.9999999999983903
-3.903627106621813        -3.765100772752969       0.9999999999982645
-3.73204160458863         -4.161094027712865       0.9999999999986207
-3.7907104513373113       -4.238523169818346       0.9999999999985002
-3.949154025848493        -3.851254851573216       0.999999999998166
-4.016524490388751        -3.7692757749932224      0.9999999999980357
-3.8441952014255003       -4.1576865859135115      0.9999999999983835
-3.9036270210879143       -4.234899230197683       0.9999999999982642
-4.0583444816301295       -3.8595127560651         0.9999999999979466
-4.12939889192949         -3.7740319538101827      0.9999999999978142
-3.9562819968224248       -4.152007797462735       0.9999999999981517
-4.016524430447931        -4.230724227374982       0.9999999999980353
-4.170460248954686        -3.866046393687421       0.9999999999977297
-4.242245507374289        -3.77940633905761        0.9999999999976024
-4.072667287760483        -4.147796139936442       0.9999999999979189
-4.129398683619026        -4.225968055526304       0.9999999999978142
-4.284823879784063        -3.870221609001217       0.9999999999975184
-4.355058531221392        -3.7854446601611995      0.9999999999974012
-4.189192820438802        -4.137364695497727       0.9999999999976944
-4.242245449998469        -4.2205936638398365      0.9999999999976025
-4.399193488141612        -3.8736683176070126      0.9999999999973187
-4.467830638271116        -3.7922038343620863      0.999999999997212
-4.306351460418739        -4.1318785915176         0.9999999999974801
-4.355058660159942        -4.214555332536263       0.9999999999974012
-4.514099226505799        -3.8765288282977752      0.9999999999971312
-4.58055166799382         -3.7997555060812607      0.9999999999970358
-4.4203064980983875       -4.127272186051623       0.9999999999972836
-4.467830495314726        -4.207796174693449       0.9999999999972123
-4.624647570359721        -3.883079156434034       0.9999999999969641
-4.688330605913397        -3.8078062122815513      0.999999999996881
-4.530839513867242        -4.122908989491576       0.9999999999971049
-4.580551598240611        -4.200244498855981       0.9999999999970358
-4.726736305261878        -3.883829258658951       0.9999999999968229
-4.786425602430469        -3.8159298541231617      0.9999999999967523
-4.639582969327638        -4.120324463382958       0.999999999996943
-4.6883311089372866       -4.192193748092557       0.9999999999968812
-4.81815939363197         -3.883843453660846       0.9999999999967074
-4.875132774597329        -3.824019571570294       0.9999999999966466
-4.731941132178266        -4.1158689831714135      0.999999999996816
-4.786425798507621        -4.1840701288120545      0.9999999999967523
-4.905538091002736        -3.889769526239097       0.9999999999966068
-4.955342824477572        -3.8320300387303137      0.9999999999965595
-4.823342769035357        -4.1104575203818605      0.999999999996701
-4.875132639863996        -4.175980441303744       0.9999999999966462
-4.983103633529757        -3.890671097019468       0.9999999999965264
-5.027861523221395        -3.8399263296859423      0.9999999999964885
-4.909260051166898        -4.11021420802513        0.9999999999966027
-4.9553427940124          -4.167969964449977       0.9999999999965595
-5.053109631481808        -3.8945891088154467      0.9999999999964612
-5.093418316822651        -3.847682058374675       0.9999999999964307
-4.984061577520252        -4.108557190657914       0.9999999999965254
-5.027861561779866        -4.160073665933691       0.9999999999964886
-5.117373859776441        -3.8982895484629245      0.9999999999964072
-5.152673046519073        -3.855277785512518       0.9999999999963837
-5.053696316989129        -4.103758906485551       0.9999999999964605
-5.093418541255571        -4.152317913964588       0.9999999999964307
-5.173798540311267        -3.900867478398762       0.9999999999963647
-5.2062226790527575       -3.8626997949853203      0.9999999999963457
-5.116422797983151        -4.100861604302772       0.9999999999964079
-5.152673194174431        -4.144722194792105       0.9999999999963838
-5.223492063582999        -3.903559500780622       0.999999999996331
-5.254607256818817        -3.8699390945677203      0.999999999996315
-5.1720080096546655       -4.09860214204487        0.9999999999963657
-5.206223073816093        -4.137300148131054       0.9999999999963456
-5.268771761153704        -3.907732459890898       0.9999999999963037
-5.2983152420328015       -3.8769906029183114      0.9999999999962901
-5.223488166217052        -4.094959081707855       0.9999999999963309
-5.254607491456245        -4.1300608689574165      0.999999999996315
-5.310720742071755        -3.9122902931821453      0.9999999999962812
-5.33778838430085         -3.8838524981810454      0.9999999999962702
-5.27053257362829         -4.090634330750501       0.9999999999963026
-5.298315748162366        -4.1230093122798275      0.9999999999962901
-5.349063906683534        -3.916178668106132       0.9999999999962629
-5.373426057999084        -3.8905256851263124      0.9999999999962542
-5.312664417105194        -4.086858213398618       0.9999999999962802
-5.337788886728289        -4.1161474111327845      0.9999999999962701
-5.383592317664792        -3.9201641565427146      0.999999999996248
-5.405589173817914        -3.8970133674981895      0.9999999999962416
-5.349995523700357        -4.08336350890476        0.9999999999962624
-5.373426303701533        -4.109474267104787       0.9999999999962541
-5.41467664869767         -3.9239220819519924      0.9999999999962362
-5.434603799052743        -3.9033207316264282      0.9999999999962311
-5.384049499024499        -4.079629654818321       0.9999999999962476
-5.405590016203545        -4.102986456050792       0.9999999999962416
-5.441921036106837        -3.9276079314743377      0.9999999999962274
-5.460764450466572        -3.9094547250259932      0.9999999999962231
-5.414838359873472        -4.075730977617474       0.9999999999962362
-5.434604329463047        -4.096679148594932       0.9999999999962311
-5.484336601115258        -3.9154238014513223      0.9999999999962168
-5.466391744087858        -3.93189853961185        0.99999999999622
-5.4426783295179275       -4.07193464318631        0.999999999996227
-5.460764600360861        -4.090545238443002       0.999999999996223
-5.489468800686635        -3.935916000761386       0.9999999999962145
-5.505559481108201        -3.921237866227045       0.9999999999962116
-5.467698405507963        -4.068166453207709       0.9999999999962199
-5.484336751753032        -4.084576158868971       0.9999999999962168
-5.509990480245031        -3.9398500245053865      0.9999999999962096
-5.524648441929837        -3.9269082775371893      0.9999999999962075
-5.490207481520703        -4.06433140913717        0.9999999999962143
-5.505559779122429        -4.078762048757736       0.9999999999962116
-5.528369955906048        -3.943865091714743       0.999999999996206
-5.541796495974287        -3.9324477606493016      0.9999999999962045
-5.5103728079188725       -4.060484662860347       0.9999999999962096
-5.524648651700974        -4.07309165748713        0.9999999999962079
-5.5448361619352005       -3.947904381696994       0.9999999999962031
-5.557176157246519        -3.937870552905604       0.9999999999962025
-5.528559999507611        -4.056503169575884       0.999999999996206
-5.54179681859463         -4.067552130491453       0.9999999999962045
-5.559547112766793        -3.9519175752421987      0.9999999999962013
-5.570940673362558        -3.9431925472527283      0.9999999999962004
-5.544872501328175        -4.052445382820681       0.9999999999962036
-5.557176458511774        -4.062129335899517       0.9999999999962025
-5.572607430523504        -3.955969147469611       0.9999999999961996
-5.583224887671419        -3.948431506376694       0.9999999999961989
-5.559467932584586        -4.048342407066545       0.9999999999962013
-5.570940931733228        -4.0568073478890385      0.9999999999962004
-5.58424935599928         -3.9600134404098903      0.9999999999961985
-5.594145607639259        -3.9536073208816993      0.999999999996198
-5.572540282552242        -4.044185649202696       0.9999999999961996
-5.583225361926411        -4.051568280582504       0.9999999999961989
-5.594576127567617        -3.9640990520704635      0.9999999999961976
-5.6038013182798565       -3.95874224682465        0.9999999999961972
-5.58423034972273         -4.040014954124275       0.9999999999961986
-5.594145747367913        -4.046392609053019       0.999999999996198
-5.603639411926297        -3.968257813965167       0.9999999999961968
-5.612271002743195        -3.963860950376585       0.9999999999961964
-5.594587268591829        -4.035831232959577       0.9999999999961976
-5.603802020599624        -4.041257355698833       0.9999999999961972
-5.611528665337468        -3.9724506622901252      0.9999999999961965
-5.619611761468954        -3.968989927706148       0.9999999999961964
-5.603683767351107        -4.031634137390182       0.9999999999961968
-5.612270988124229        -4.036139059099527       0.9999999999961964
-5.625854984566409        -3.9741552555590753      0.9999999999961959
-5.617995448564683        -3.97656178572782        0.999999999996196
-5.611571707367956        -4.0274161839282066      0.9999999999961965
-5.61961175079575         -4.031010080379243       0.9999999999961963
-5.631001696986334        -3.9793764717131905      0.9999999999961956
-5.623711491802247        -3.981044448332874       0.9999999999961958
-5.618311898905946        -4.023150420705357       0.999999999996196
-5.625854977198764        -4.025844751153656       0.9999999999961959
-5.635020680000565        -3.984652657549446       0.9999999999961955
-5.628281463853629        -3.9853805804998856      0.9999999999961958
-5.623992864245991        -4.0188771106005445      0.9999999999961959
-5.631001692331017        -4.020623533612542       0.9999999999961956
-5.6378606301466245       -3.98993745173262        0.9999999999961955
-5.631774765973634        -3.9898012413330424      0.9999999999961954
-5.628630923836939        -4.014608447541014       0.9999999999961958
-5.635020677473281        -4.015347346341695       0.9999999999961955
-5.639495453359568        -3.9951125429798946      0.9999999999961955
-5.634140108198344        -3.9940529318652587      0.9999999999961954
-5.631775236166031        -4.010528750059764       0.9999999999961954
-5.63786062912687         -4.0100625506646175      0.9999999999961955
-5.640000000000001        -3.9999999999999996      0.9999999999961955
-5.635358301378243        -3.9981320782767877      0.9999999999961954
-5.6394954531744155       -4.0048874579167935      0.9999999999961956
-5.6352491271594065       -4.002202406816032       0.9999999999961954
-5.6342414946412624       -4.006281037193085       0.9999999999961954
-0.3689044985791571       -3.9967590883917623      1.000000000003219
-0.3676749838106112       -3.9997720499600975      1.0000000000032192
-0.3713001290581151       -3.9995777742923044      1.000000000003219
-0.3688153589185975       -4.002769557974826       1.000000000003219
-0.3731094261883303       -4.0023741772091155      1.000000000003219
-0.3700604872199623       -3.9933014537276863      1.0000000000032192
-0.3748724441706729       -3.999451245383005       1.0000000000032192
-0.3766705395442284       -4.00147511367163        1.0000000000032192
-0.3741458915784706       -3.99591527699267        1.000000000003219
-0.375925328453063        -4.0049978315832         1.000000000003219
-0.37965677477519827      -4.002868424059181       1.000000000003219
-0.3710350678865004       -4.005965712848288       1.000000000003219
-0.37326409387808857      -3.9906290667811057      1.000000000003219
-0.3789405136630873       -3.9983219501854492      1.000000000003219
-0.37861131404028486      -3.9927012667857085      1.000000000003219
-0.3831905871384662       -4.000669914993493       1.000000000003219
-0.383710834530009        -4.004707171022256       1.000000000003219
-0.3874520002337616       -4.001213349127444       1.0000000000032188
-0.37917393684418643      -4.007493555089468       1.000000000003219
-0.37421471179940907      -4.009477268381149       1.000000000003219
-0.3774231040368624       -3.9870590340123386      1.000000000003219
-0.38245539811704493      -3.9891097813950482      1.0000000000032188
-0.3854360443942899       -3.995172409412454       1.0000000000032188
-0.3910491806872095       -3.9984677741456305      1.0000000000032188
-0.39242856677882704      -4.002659276589007       1.0000000000032185
-0.39513626023047377      -3.998697803008431       1.0000000000032185
-0.3883753095506142       -4.00658563854803        1.0000000000032188
-0.38353280689434693      -4.010092737497396       1.000000000003219
-0.3780031646130925       -4.012817897993627       1.000000000003219
-0.38272989509106775      -3.983625514112504       1.0000000000032188
-0.38810531170715024      -3.987809453849689       1.0000000000032188
-0.39368319810328717      -3.9930856264457963      1.0000000000032185
-0.4000527386712738       -3.9964597951867127      1.0000000000032185
-0.39836977373498406      -4.002807334886262       1.0000000000032185
-0.39418887623591936      -4.0081837598182455      1.0000000000032185
-0.3889391762485879       -4.012657704676414       1.0000000000032188
-0.3829979815581036       -4.01629593943092        1.0000000000032188
-0.3885081902945942       -3.9803171451299613      1.0000000000032188
-0.39498390048519055      -3.9850799954296434      1.0000000000032185
-0.40101895054742204      -3.989912154088015       1.0000000000032185
-0.40586020799883044      -3.9942129130247688      1.0000000000032183
-0.4063978018939771       -4.001806666263367       1.0000000000032185
-0.4015157436703216       -4.009359325900508       1.0000000000032185
-0.39550617978695385      -4.015033897477363       1.0000000000032185
-0.3890363251721874       -4.019755259942034       1.0000000000032188
-0.39575220557533003      -3.9769214659304333      1.0000000000032185
-0.40278595433371955      -3.982386497957448       1.0000000000032185
-0.4087472186602226       -3.9882479460101585      1.000000000003218
-0.4131078245193601       -3.995464441482307       1.0000000000032179
-0.41645727635950075      -4.003317666021907       1.0000000000032176
-0.40982854076314784      -4.010672430517675       1.000000000003218