% Model:              Circle_vs_rectangle_all_same.mph
% Version:            COMSOL 6.1.0.357
% Date:               Feb 27 2025, 16:49
% Dimension:          2
% Nodes:              9327
% Expressions:        1
% Description:        Dependent variable u
% Length unit:        m
% X                       Y                        u (1) @ t=10000
-2.63025576722657         -4.060921661809123       0.9999999898728041
-2.6174050007643883       -4.041914357819852       0.999999989872293
-2.6415233063122927       -4.039960207248797       0.999999989870466
-2.605248456250705        -4.058813521279656       0.999999989875343
-2.6142834310134506       -4.081814188822294       0.9999999898768402
-2.6277846107721814       -4.025040516888101       0.9999999898703599
-2.6480001949953422       -4.019421105203552       0.9999999898693129
-2.58692027490276         -4.075414208604359       0.9999999898806068
-2.5938006818839114       -4.102426596359607       0.9999999898832579
-2.6306944492587716       -4.009176642568882       0.999999989869692
-2.65                     -4                       0.9999999898689849
-2.5636504220804266       -4.09210291767178        0.9999999898889113
-2.5689297138390024       -4.122728579448404       0.999999989892927
-2.630911885163361        -3.9925099318129647      0.9999999898696538
-2.6480001978021925       -3.9805789084206755      0.999999989869313
-2.5366953406926833       -4.108913026766825       0.9999999899009561
-2.539668424446448        -4.142772263854308       0.9999999899069398
-2.641523320803602        -3.9600398268534356      0.9999999898704667
-2.6258573103398186       -3.9759016559935034      0.999999989870474
-2.505454840534503        -4.1251152387525805      0.9999999899179116
-2.5058953851155095       -4.162635415424157       0.9999999899266586
-2.630255802615137        -3.939078392583209       0.9999999898728041
-2.6165241598762377       -3.9587325463663685      0.9999999898723467
-2.4694273454447844       -4.141147141299896       0.9999999899415125
-2.467387276244106        -4.182395361676632       0.9999999899537791
-2.6142834958178516       -3.9181858848962925      0.9999999898768405
-2.603350628379967        -3.941375930504771       0.9999999898756212
-2.428661454520244        -4.1567518789118685      0.9999999899734079
-2.4238337395199823       -4.202118541220345       0.9999999899904038
-2.593800784131417        -3.8975734958179173      0.9999999898832582
-2.5858525663766203       -3.9246797349731795      0.9999999898808277
-2.3824765767655105       -4.172292509290793       0.9999999900162625
-2.374846899117963        -4.221856804364721       0.9999999900391373
-2.5638109706154584       -3.9077205640981907      0.999999989888891
-2.5689298616712923       -3.877271530711687       0.999999989892927
-2.330619377221947        -4.1878177493412325      0.9999999900729107
-2.319967288744291        -4.24164587678471        0.999999990103193
-2.536878448567724        -3.8913814948369794      0.9999999899008313
-2.5396686266372344       -3.857227864184909       0.9999999899069397
-2.273323077085651        -4.203482641732417       0.9999999901460738
-2.2596544895551984       -4.261200611836607       0.9999999901850806
-2.505515018277948        -3.8747016917710324      0.9999999899179199
-2.50589565144251         -3.8373647306628142      0.9999999899266584
-2.21125468123541         -4.219377903497778       0.9999999902379034
-2.1947872973857523       -4.280200350384845       0.9999999902865105
-2.47018226980605         -3.858960493171406       0.9999999899410213
-2.4673876177689364       -3.8176048027962497      0.9999999899537787
-2.1458885547360986       -4.235253041204491       0.9999999903486879
-2.1266154719485812       -4.298328476997375       0.9999999904079218
-2.4286397792908176       -3.8437623602678217      0.9999999899732925
-2.4238341688320943       -3.797881642061019       0.9999999899904034
-2.0782265590323923       -4.251413060566535       0.9999999904786151
-2.0572720788097176       -4.315163905649662       0.9999999905468503
-2.3820926071972433       -3.828354162850431       0.9999999900164348
-2.374847417986642        -3.7781433933635733      0.9999999900391369
-2.009693715201934        -4.266924703637525       0.9999999906255974
-1.9876229136813963       -4.330692615606525       0.9999999907018781
-2.3307667444559614       -3.8124263053195397      0.9999999900726761
-2.3199667674971622       -3.7583539450618555      0.9999999901031938
-1.9408752378418137       -4.2815390973728285      0.9999999907884661
-1.917727533668375        -4.345072680887234       0.9999999908728444
-2.2734807446760796       -3.7966235223701688      0.9999999901458364
-2.2596549495337666       -3.7387995298255556      0.9999999901850799
-1.8718899343398947       -4.295151402881218       0.9999999909667688
-1.8476290142887866       -4.358429340628673       0.9999999910595493
-2.2116784469277424       -3.7808709648341847      0.9999999902371838
-2.194787413123235        -3.7197996818886567      0.9999999902865103
-1.8024886318101525       -4.307895694144857       0.9999999911610633
-1.777361155509903        -4.370863315166511       0.9999999912617487
-2.1465982935691064       -3.7649680179776315      0.999999990347389
-2.1266159317545483       -3.7016716396882234      0.9999999904079205
-1.7328408718322366       -4.3197558125383715      0.9999999913707626
-1.7069493966325224       -4.382457240311901       0.9999999914791647
-2.078878170758967        -3.748470913512971       0.9999999904773919
-2.0572724750073186       -3.684836186419771       0.9999999905468497
-1.6629733042027777       -4.330857793797426       0.9999999915956314
-1.63641519137895         -4.393279486838154       0.9999999917114776
-2.010700472510449        -3.7330590058421858      0.9999999906234202
-1.98762343266892         -3.669307495442514       0.9999999907018772
-1.5929596582523542       -4.341195292024176       0.999999991835168
-1.5657748172811883       -4.403387631691277       0.9999999919583374
-1.9419052585561785       -3.7186689637450563      0.9999999907859184
-1.9177280006022803       -3.654927411493222       0.9999999908728433
-1.5228032761498236       -4.35084939432321        0.9999999920890766
-1.4950427091396186       -4.412830330871991       0.9999999922193568
-1.872476527273194        -3.705156555339188       0.9999999909651095
-1.8476296480338115       -3.6415707756698477      0.9999999910595472
-1.4525456698090116       -4.359894121325884       0.9999999923568818
-1.424230693948949        -4.421649228115553       0.9999999924941169
-1.8027543291781598       -3.692526764804789       0.9999999911601353
-1.7773616663987435       -3.629136771997379       0.9999999912617472
-1.3822115456779809       -4.368363623061002       0.9999999926381006
-1.3533475251033045       -4.429880329589263       0.9999999927821733
-1.7328876916654952       -3.680662514937144       0.9999999913704446
-1.7069501183717122       -3.6175428743624973      0.9999999914791622
-1.3117781148952619       -4.376258561274521       0.9999999929323923
-1.2824011414798577       -4.4375547491484415      0.99999999308305
-1.6629338136625016       -3.6695424733184225      0.9999999915955922
-1.6364157960220322       -3.606720602727125       0.9999999917114755
-1.2412646963007357       -4.38359811470154        0.9999999932392295
-1.2113990434592452       -4.444699504043595       0.9999999933962395
-1.5928933678042922       -3.6591496082648125      0.999999991835253
-1.5657755531632427       -3.596612469995236       0.9999999919583348
-1.1706125161425789       -4.390384583428945       0.9999999935583973
-1.1403483983935998       -4.451338168177078       0.9999999937212048
-1.522745919631844        -3.649455155621316       0.9999999920891601
-1.4950433011029276       -3.587169745445692       0.9999999922193545
-1.0999103925405422       -4.3966900119035275      0.9999999938890208
-1.069254584904115        -4.457491520936491       0.999999994057387
-1.4524862170424804       -3.640396657162662       0.9999999923569921
-1.4242305303972096       -3.578350752217705       0.9999999924941175
-1.0291584262876272       -4.402536940255044       0.9999999942305583
-0.9981218184757926       -4.463177873832731       0.9999999944042068
-1.3821108001697442       -3.631955607789287       0.9999999926383797
-1.353346879940496        -3.5701195981039264      0.999999992782176
-0.958368682706324        -4.407945585700783       0.9999999945823833
-0.9269541232913399       -4.468413319466684       0.9999999947610586
-1.3116160488623796       -3.6240991244108205      0.9999999929329365
-1.2824009234718732       -3.562445228105188       0.9999999930830509
-0.8875366486800255       -4.4129323716260425      0.9999999949439261
-0.8557553637370372       -4.473212014266602       0.9999999951273152
-1.2410646602746391       -3.6167269690395023      0.9999999932399853
-1.2113995545346514       -3.5553005455189886      0.9999999933962375
-0.8166605035129352       -4.41749699378398        0.999999995314579
-0.784529317301257        -4.477586408051346       0.9999999955023275
-1.170460872740872        -3.6098421262475124      0.9999999935590057
-1.1403490804823913       -3.5486618931743705      0.9999999937212017
-0.7457310252882906       -4.421644879955556       0.9999999956937584
-0.713279599368136        -4.481547442351739       0.9999999958854269
-1.0998053151119722       -3.6034290115608063      0.9999999938894751
-1.069254983591797        -3.542508512236089       0.9999999940573853
-0.6747503026555673       -4.425381565506006       0.9999999960808061
-0.642009009944809        -4.485104739661956       0.9999999962759297
-1.0290743071317698       -3.5975360096313644      0.9999999942309435
-0.9981219225820198       -3.5368221341538475      0.9999999944042064
-0.6038038612713595       -4.428756938113909       0.9999999964745879
-0.5707199319298096       -4.4882666998818666      0.9999999966731384
-0.9582995870874225       -3.592069634005375       0.9999999945827248
-0.926954293889306        -3.5315866925518398      0.9999999947610577
-0.5328559164571774       -4.4317373730017495      0.9999999968745917
-0.4994146191493565       -4.4910405918819265      0.9999999970763408
-0.8874750972834906       -3.5870291667551584      0.9999999949442543
-0.8557558771314253       -3.526788018785066       0.9999999951273125
-0.4618990584186699       -4.434341776881201       0.9999999972801579
-0.4280952334707847       -4.493432643090565       0.9999999974848115
-0.8165908085478972       -3.582434884082288       0.9999999953149654
-0.7845300841784755       -3.5224136367954624      0.9999999955023235
-0.3908921412667854       -4.4365296504745775      0.9999999976908018
-0.356763876138783        -4.495448113964075       0.9999999978978137
-0.7456957632577629       -3.5782827143475426      0.9999999956939675
-0.7132801515075053       -3.5184525867633343      0.9999999958854241
-0.3198693981678798       -4.438315618517498       0.999999998105609
-0.28542261490420334      -4.497091359350376       0.999999998314601
-0.6748120789696865       -3.574581913477409       0.9999999960804759
-0.6420088996943782       -3.514895255143658       0.9999999962759304
-0.2488177892818071       -4.439753225279258       0.9999999985239288
-0.21407350801441996      -4.498365878352971       0.999999998734418
-0.6038118300157337       -3.571272062670877       0.9999999964745373
-0.5707189956383897       -3.511733261157602       0.999999996673144
-0.17775591691908946      -4.440836265867355       0.9999999989449092
-0.14271862595020307      -4.4992743539578255      0.9999999991565032
-0.5327770859173286       -3.568323718386823       0.9999999968750272
-0.4994129616776499       -3.5089593481061563      0.9999999970763502
-0.10667578632084417      -4.441538940668145       0.9999999993678469
-0.07136007166529099      -4.499818683399545       0.99999999958009
-0.46173678162951126      -3.565750999845014       0.9999999972810744
-0.42809307598951485      -3.506567290273778       0.9999999974848239
-0.035596638676459784     -4.441887073915125       0.9999999997918764
0                         -4.5                     1.0000000000044078
-0.3907104221543991       -3.5635150184209414      0.9999999976918511
-0.3567615532512722       -3.504551826489224       0.999999997897827
0.03548234106456122       -4.441882430130545       1.0000000002162466
0.07135976193010887       -4.49981868497382        1.0000000004286862
-0.3197003168407116       -3.5616331963246335      0.9999999981066064
-0.285420493759436        -3.502908597291636       0.9999999983146131
0.1065641669116414        -4.441524687020744       1.0000000006402192
0.14271767517307665       -4.499274363633181       1.000000000852157
-0.24870074198639866      -3.5601172950417794      0.9999999985246325
-0.21407188209670933      -3.5016340967836697      0.9999999987344278
0.17765522131492836       -4.440812502915258       1.0000000010630758
0.21407188209670971       -4.49836590321633        1.0000000012740526
-0.17768733505996492      -3.55898747208922        0.9999999989453284
-0.14271767517307665      -3.50072563636682        0.999999999156509
0.2487328776948369        -4.439747477945058       1.0000000014839294
0.285420493759436         -4.497091402708364       1.0000000016936086
-0.10663037788459108      -3.5582536634658557      0.9999999993681258
-0.07135976193010762      -3.5001813150261785      0.9999999995800918
0.3197762983579815        -4.438319882617351       1.0000000019019106
0.3567615532512726        -4.495448173510776       1.000000002110066
-0.035534059954699805     -3.557898711491631       0.9999999997922527
0                         -3.5                     1.0000000000044074
0.3907782656651147        -4.436505551560711       1.0000000023162434
0.42809307598951485       -4.493432709726222       1.0000000025226725
0.03556672944862139       -3.557895851446348       1.0000000002167473
0.07136007166529099       -3.5001813166004534      1.000000000428688
0.46175942234748973       -4.434298531791851       1.0000000027263212
0.4994129616776505        -4.491040651893843       1.000000002930684
0.1066401260913236        -3.5582421612408357      1.0000000006406624
0.142718625950203         -3.5007256460421754      1.0000000008521626
0.5327230363095766        -4.431692569728296       1.0000000031314438
0.5707189956383897        -4.488266738842398       1.000000003333366
0.17768263015064742       -3.558949383866436       1.0000000010632226
0.21407350801441988       -3.5016341216470277      1.000000001274062
0.6037189258687647        -4.42873398221449        1.00000000353117
0.6420088996943786        -4.485104744856342       1.000000003729997
0.24871011883345454       -3.560025102055819       1.000000001483774
0.2854226149042034        -3.502908640649621       1.0000000016936208
0.6747051409707895        -4.4253424420174         1.0000000039245724
0.7132801515075058        -4.481547413236666       1.0000000041198671
0.3197276504497362        -3.5614833406689343      1.0000000019016022
0.3567638761387829        -3.504551886035923       1.0000000021100794
0.7456373245138482        -4.421579075316232       1.0000000043107098
0.784530084178476         -4.477586363204538       1.0000000045022814
0.39074038849423814       -3.5633315474208564      1.000000002316
0.42809523347078465       -3.5065673569094344      1.0000000025226847
0.8165270893286586        -4.417410346291456       1.0000000046889896
0.8557558771314262        -4.473211981214933       1.0000000048765616
0.4617488795329439        -3.56556367675028        1.0000000027262372
0.4994146191493562        -3.508959408118073       1.0000000029306932
0.8873948148067234        -4.412839853821491       1.0000000050588687
0.9269542938893065        -4.468413307448159       1.0000000052420466
0.5327463148181684        -3.5681684828712723      1.0000000031315486
0.5707199319298096        -3.511733300118133       1.0000000033333711
0.9582246549882254        -4.407815182625859       1.0000000054196454
0.9981219225820207        -4.463177865846152       1.0000000055980942
0.6037281852775734        -3.571147416344802       1.0000000035311958
0.6420090099448089        -3.514895260338043       1.0000000037299974
1.0290149276793708        -4.402367688974932       1.0000000057706904
1.0692549835917975        -4.457491487763911       1.0000000059440826
0.674681097400478         -3.574521253692883       1.0000000039244077
0.7132795993681357        -3.5184525576482613      1.000000004119864
1.0997469219614726        -4.396479778132164       1.0000000061113286
1.1403490804823917        -4.45133810682563        1.0000000062794119
0.7456146465285066        -3.5783015058421217      1.0000000043105564
0.7845293173012567        -3.522413591948653       1.0000000045022772
1.1704133890240827        -4.390135463571127       1.0000000064409702
1.2113995545346519        -4.44469945448101        1.0000000066035055
0.8165312528837294        -3.5824787901188917      1.00000000468898
0.8557553637370372        -3.5267879857333972      1.0000000048765587
1.2410263534282753        -4.383295354247899       1.0000000067591464
1.2824009234718738        -4.437554771894812       1.000000006915811
0.8874208363542503        -3.5870574478881037      1.0000000050589712
0.92695412329134          -3.5315866805333154      1.0000000052420457
1.3116032332915901        -4.375937682813648       1.00000000706542
1.3533468799404962        -4.4298804018960745      1.000000007215801
0.9582911494689212        -3.592035333995308       1.0000000054199305
0.998121818475792         -3.536822126167269       1.0000000055980933
1.3821135369550983        -4.368068135012474       1.0000000073591624
1.4242305303972105        -4.421649247782295       1.000000007502977
1.0291215574787362        -3.597474236299302       1.0000000057711558
1.0692545849041155        -3.542508479063509       1.0000000059440806
1.4525443876283914        -4.359678259868978       1.000000007639863
1.4950433011029272        -4.412830254554307       1.0000000077768658
1.0999009338489951        -3.603329662356797       1.0000000061119871
1.1403483983936007        -3.548661831822921       1.0000000062794085
1.5228593569541058        -4.350755985205827       1.0000000079069613
1.565775553163243         -4.403387530004764       1.0000000080370262
1.1706020959221584        -3.6096312210671786      1.0000000064417434
1.2113990434592454        -3.5553004959564047      1.000000006603503
1.5930151653858868        -4.341230733408942       1.0000000081599534
1.6364157960220334        -4.393279397272876       1.0000000082830462
1.2412250537569822        -3.616438079717382       1.0000000067599162
1.2824011414798582        -3.562445250851558       1.000000006915812
1.663002033636608         -4.330995407776106       1.0000000083985225
1.7069501183717128        -4.382457125637503       1.0000000085145462
1.3117107946261513        -3.6237211293482496      1.0000000070657398
1.3533475251033036        -3.5701196704107363      1.0000000072158035
1.7326679829622422        -4.319970784141338       1.0000000086219438
1.7773616663987435        -4.370863228002621       1.0000000087311796
1.382088907329477         -3.631594731379847       1.0000000073589284
1.4242306939489486        -3.578350771884447       1.0000000075029778
1.802186861963482         -4.308028195105614       1.0000000088305878
1.8476296480338121        -4.358429224330152       1.0000000089326346
1.4523516581137397        -3.640070347328111       1.0000000076390199
1.4950427091396186        -3.587169669128009       1.0000000077768634
1.8715365107802855        -4.295081510094425       1.0000000090241734
1.9177280006022817        -4.345072588506778       1.0000000091186356
1.5225371164426613        -3.6491710414689926      1.0000000079057552
1.5657748172811876        -3.596612368308722       1.0000000080370233
1.940582664288819         -4.281133365426594       1.000000009202154
1.9876234326689208        -4.330692504557486       1.0000000092889452
1.5926565050470953        -3.658918776567823       1.0000000081587785
1.6364151913789498        -3.6067205131618447      1.000000008283044
2.009494867365382         -4.266662188117173       1.0000000093645995
2.05727247500732          -4.315163813580228       1.0000000094433663
1.6627027750324936        -3.6693759713517746      1.0000000083977072
1.706949396632522         -3.6175427596881         1.000000008514544
2.0778309972446323        -4.251083368637094       1.0000000095106871
2.12661593175455          -4.298328360311776       1.0000000095817434
1.7325858741263778        -3.6805279569349754      1.0000000086219025
1.7773611555099038        -3.6291366848334903      1.000000008731178
2.1453479324708677        -4.2348681278535585      1.000000009639949
2.194787413123236         -4.280200318111343       1.000000009702665
1.8024037104103499        -3.692326472892349       1.0000000088313465
1.8476290142887866        -3.6415706593713275      1.0000000089326329
2.2108596069485418        -4.219119476207726       1.0000000097505708
2.2596549495337674        -4.261200470174444       1.0000000098036819
1.8719408310330907        -3.705183842031067       1.000000009025335
1.9177275336683741        -3.654927319112765       1.0000000091186343
2.2728915903597664        -4.203285025574368       1.0000000098420363
2.3199667674971645        -4.241646054938144       1.0000000098852306
1.9411684423278273        -3.718742934453606       1.0000000092035017
1.9876229136813963        -3.6693073843934743      1.0000000092889438
2.3302613825768743        -4.187643612529983       1.0000000099150501
2.374847417986642         -4.221856606636426       1.0000000099490223
2.0099072719659006        -3.7330294408465323      1.0000000093653714
2.0572720788097176        -3.6848360943503393      1.0000000094433656
2.382037743784049         -4.172379828899468       1.0000000099713764
2.423834168832096         -4.20211835793898        1.0000000099975528
2.078339402281043         -3.7484874663402428      1.0000000095115118
2.1266154719485812        -3.701671523002626       1.0000000095817423
2.428549588406279         -4.157107456071928       1.0000000100143016
2.467387617768937         -4.182395197203751       1.0000000100340238
2.1459401807184344        -3.764840359292979       1.0000000096408599
2.194787297385751         -3.719799649615154       1.0000000097026647
2.4690534646273745        -4.1417458534726626      1.0000000100458684
2.5058956514425095        -4.162635269337185       1.00000001006103
2.211255008700106         -3.7806861931004216      1.000000009751096
2.2596544895551984        -3.738799388163393       1.0000000098036812
2.505181701335732         -4.125531832897428       1.0000000100695188
2.539668626637235         -4.142772135815091       1.000000010080666
2.2731970038274434        -3.796576802426116       1.0000000098423847
2.3199672887442895        -3.7583541232152897      1.0000000098852315
2.5365872414825335        -4.109224536459777       1.0000000100865256
2.568929861671293         -4.122728469288313       1.0000000100946191
2.330506954947423         -3.8123829308932335      1.0000000099153257
2.3748468991179634        -3.7781431956352787      1.0000000099490218
2.593800784131417         -4.102426504182082       1.0000000101042474
2.5631107097479267        -4.09262976563134        1.0000000100983775
2.382159285716761         -3.8280316808819457      1.0000000099716015
2.423833739519983         -3.7978814587796554      1.0000000099975521
2.614283495817851         -4.0818141151037075      1.0000000101106379
2.5855530416562864        -4.07554722529146        1.0000000101065731
2.4283714939870173        -3.8439012764059624      1.0000000100144246
2.4673872762441076        -3.817604638323368       1.0000000100340236
2.6302558026151375        -4.060921607416791       1.000000010114657
2.603232317885052         -4.058016410909119       1.0000000101118929
2.4696648925334745        -3.8595003678207007      1.0000000100465345
2.50589538511551          -3.837364584575843       1.0000000100610298
2.6415233208036017        -4.039960173146564       1.0000000101169848
2.6166595586440806        -4.041214392679318       1.0000000101151316
2.5060488374241405        -3.875234432946102       1.0000000100701048
2.539668424446447         -3.8572277361456924      1.0000000100806659
2.6480001978021934        -4.019421091579323       1.0000000101181332
2.626588817961414         -4.024239413757961       1.000000010117031
2.5377787488325048        -3.8912206809527         1.0000000100870652
2.568929713839003         -3.8772714205515957      1.0000000100946196
2.65                      -4                       1.0000000101184598
2.630419798727776         -4.0078971837506145      1.0000000101177562
2.5646297690613125        -3.9075148500396444      1.000000010098846
2.5938006818839106        -3.8975734036403913      1.0000000101042474
2.6480001949953422        -3.980578894796449       1.0000000101181332
2.631177570981171         -3.9912464245017105      1.000000010117794
2.5866655139249186        -3.9241723936562165      1.0000000101067796
2.6142834310134506        -3.9181858111777057      1.000000010110638
2.627246904795777         -3.9749445159700643      1.0000000101170488
2.641523306312292         -3.9600397927512034      1.000000010116985
2.6302557672265707        -3.9390783381908783      1.0000000101146571
2.6172870693736243        -3.9582198475520114      1.0000000101151627
2.6054826075974415        -3.940969228212307       1.0000000101121431
-2.6107662578823803       -4.027029670669226       0.9999999898722411
-2.6145680110193927       -4.013319717918594       0.9999999898712858
-2.598013785840667        -4.037131241118356       0.9999999898747848
-2.5948429665611377       -4.016334100298885       0.9999999898744295
-2.6058490951996474       -4.002203256519405       0.999999989872331
-2.592726312839618        -4.001918577262522       0.9999999898746161
-2.6191993243742715       -4.001169217695169       0.9999999898706097
-2.5818797219172676       -4.050771615202259       0.9999999898791206
-2.578627801161115        -4.027790034399481       0.9999999898783797
-2.57824166759632         -4.006388604081212       0.9999999898778589
-2.586002442134626        -3.9937709728873805      0.9999999898760465
-2.5986953927063596       -3.9908959525257277      0.9999999898735695
-2.615111271820605        -3.989620922139388       0.9999999898711609
-2.560426230793043        -4.0645688511677776      0.9999999898862634
-2.5594305354109497       -4.03937953330224        0.9999999898843751
-2.5589404723108835       -4.016757151342806       0.999999989883463
-2.5622864120143083       -3.9990071935525227      0.9999999898821994
-2.574236340884629        -3.98917825836273        0.9999999898789388
-2.587561091947922        -3.9805842752883294      0.9999999898759931
-2.606079918209159        -3.9762831131222542      0.9999999898727675
-2.535307107576435        -4.078282727987249       0.9999999898967097
-2.535947538467957        -4.050148077607267       0.9999999898934405
-2.5380422606378525       -4.0263303994814175      0.9999999898911044
-2.5423116408485056       -4.000527205416603       0.9999999898889118
-2.5561216137805913       -3.9830400988474874      0.9999999898843651
-2.575233595863064        -3.9704509178206577      0.9999999898793167
-2.594496509452871        -3.962981566418123       0.9999999898754263
-2.5072356744022097       -4.091362804552925       0.9999999899109656
-2.509522161968104        -4.059927699570295       0.9999999899059003
-2.513008827138375        -4.032309220560221       0.999999989902118
-2.522210457139158        -4.012178563730472       0.9999999898971799
-2.5176175795707203       -3.9919143212026404      0.9999999898991673
-2.537536854721834        -3.975991491116007       0.9999999898912019
-2.5571427391001795       -3.9609479780689685      0.999999989885075
-2.578958370285999        -3.9484475138933988      0.9999999898798856
-2.4736275235968708       -4.103668726236491       0.9999999899313717
-2.4795087609863926       -4.069864189241285       0.9999999899230207
-2.486287024355001        -4.038616760566142       0.9999999899163189
-2.495890299645034        -4.008695801083686       0.9999999899098916
-2.497680898993344        -3.984032688917157       0.9999999899090957
-2.5146128138166537       -3.9671400211713523      0.9999999899013962
-2.5375932304220723       -3.950060972887349       0.9999999898927822
-2.5606564420794156       -3.9353905511716984      0.9999999898861972
-2.4355354155977422       -4.115826546095801       0.9999999899591395
-2.443944264672041        -4.079302922274733       0.999999989947218
-2.4528024329463043       -4.045827364725127       0.9999999899376281
-2.462151359325652        -4.014230378930488       0.9999999899298667
-2.4725974043964074       -3.988381358833359       0.9999999899232385
-2.487686397537907        -3.9640319422947448      0.9999999899153701
-2.5093867955840827       -3.9415892798657857      0.9999999899058167
-2.5357564596495203       -3.922323536657729       0.9999999898964543
-2.392553312996672        -4.127333323777582       0.9999999899962688
-2.4046697622820092       -4.087440851603399       0.9999999899788311
-2.417386271880367        -4.053474033831322       0.9999999899644664
-2.4275369164583744       -4.019475903506788       0.9999999899544815
-2.439508322010066        -3.987289150730638       0.9999999899453723
-2.4575397837544606       -3.9586280054050653      0.9999999899341301
-2.4807207292915585       -3.932202137564728       0.9999999899220772