% Model:              Circle_vs_rectangle_all_same.mph
% Version:            COMSOL 6.1.0.357
% Date:               Feb 27 2025, 16:47
% Dimension:          2
% Nodes:              8997
% Expressions:        1
% Description:        Dependent variable u
% Length unit:        m
% X                       Y                        u (1) @ t=10000
-2.5174480362097906       -4.043327255166709       0.9999999999870176
-2.541313151438088        -4.041235935739374       0.9999999999870153
-2.5297805412148926       -4.062840128186648       0.9999999999870188
-2.503457603714367        -4.060704558692177       0.9999999999870223
-2.5134295396368156       -4.084375706648286       0.9999999999870246
-2.527149291946955        -4.026314567599417       0.9999999999870152
-2.5479450246722215       -4.020069229708359       0.9999999999870135
-2.4924576883741385       -4.105619621687339       0.9999999999870339
-2.483117304341934        -4.078698422866784       0.9999999999870308
-2.5311007957425558       -4.009479597079547       0.999999999987014
-2.55                     -4                       0.9999999999870134
-2.461235454684884        -4.0956220950131925      0.9999999999870423
-2.4669931667590963       -4.126534368347436       0.9999999999870477
-2.5310285558893675       -3.99205775660289        0.999999999987014
-2.547945027501317        -3.9799307841007887      0.9999999999870136
-2.4350152778694345       -4.112516536473675       0.9999999999870589
-2.437039623110444        -4.147168308968136       0.9999999999870677
-2.5260623612412325       -3.975622819603593       0.9999999999870149
-2.5413131659803927       -3.958764098717463       0.9999999999870154
-2.4019738231824066       -4.129398528361769       0.999999999987084
-2.402479936245881        -4.167597189685921       0.9999999999870961
-2.5297805767014223       -3.937159926738236       0.9999999999870187
-2.5157286078095336       -3.9578590144372074      0.999999999987018
-2.365245948343453        -4.145795132043867       0.9999999999871175
-2.363093556047364        -4.187896840880974       0.9999999999871351
-2.5134296046116584       -3.9156243677656657      0.9999999999870246
-2.502265073522072        -3.940377379505627       0.9999999999870228
-2.3233395865653113       -4.161871133852472       0.9999999999871633
-2.318571631684905        -4.208132021652089       0.9999999999871872
-2.4924577908761973       -3.8943804713110928      0.9999999999870338
-2.4843185170892363       -3.9225319428110654      0.99999999998703
-2.2757863943881445       -4.178031552672239       0.9999999999872248
-2.2685269041643754       -4.22835231191658        0.999999999987257
-2.4613050358954367       -3.904687918354512       0.9999999999870418
-2.466993314917758        -3.873465742709669       0.9999999999870477
-2.223399294876919        -4.194374691275515       0.9999999999873052
-2.2128331421019443       -4.248476285864997       0.9999999999873473
-2.434148489925045        -3.8874935023159125      0.9999999999870591
-2.4370398256649604       -3.852831819990395       0.9999999999870677
-2.1656420212034404       -4.210475373868145       0.9999999999874082
-2.152115851366297        -4.26819754939531        0.9999999999874624
-2.402288081775112        -3.870575797226637       0.9999999999870833
-2.402480202921521        -3.8324029572866345      0.9999999999870961
-2.1037059225952293       -4.226799074571174       0.9999999999875361
-2.0870514712256822       -4.287287768745101       0.9999999999876038
-2.3655644179635575       -3.8539499776650943      0.999999999987117
-2.3630938978266163       -3.812103324378743       0.9999999999871347
-2.0385549901877233       -4.242856549419944       0.9999999999876891
-2.0193202299255          -4.305331694453076       0.999999999987771
-2.323803469024449        -3.837683154202801       0.9999999999871626
-2.3185720610459475       -3.7918681622404593      0.9999999999871872
-1.9719563757388656       -4.259293902069014       0.9999999999878663
-1.951200320368926        -4.321910226846096       0.9999999999879593
-2.276486586282797        -3.8214019710499705      0.9999999999872243
-2.2685274353240312       -3.771647890956067       0.9999999999872567
-1.9047150603364624       -4.274656776436893       0.9999999999880652
-1.8827825591441458       -4.337211000048537       0.9999999999881691
-2.223923674750861        -3.8052100091058363      0.9999999999873043
-2.212833783482415        -3.7515239337385515      0.9999999999873476
-1.837179765652854        -4.288912620409999       0.9999999999882846
-1.8141213960772198       -4.351383466670748       0.9999999999883996
-2.1661765663486023       -3.788949253228093       0.9999999999874073
-2.1521160443753247       -3.731802510150084       0.9999999999874624
-1.7693462205696926       -4.302213585275423       0.9999999999885246
-1.7452598179124112       -4.364546041716745       0.999999999988651
-2.104063613970096        -3.772569467191115       0.9999999999875356
-2.0870521199030425       -3.712712412432546       0.9999999999876038
-1.7009431978395357       -4.314726693242873       0.9999999999887871
-1.67622947542033         -4.376794935123396       0.9999999999889223
-2.039074477593476        -3.7566703120636324      0.9999999999876882
-2.019320510708808        -3.6946683769413524      0.999999999987771
-1.6324456413734623       -4.326409050116998       0.9999999999890686
-1.6070562432723536       -4.388209061846952       0.9999999999892141
-1.9728870966666259       -3.7414283889154643      0.9999999999878634
-1.951201042169309        -3.6780899413608923      0.9999999999879595
-1.5637849165019795       -4.337313702117837       0.9999999999893702
-1.5377604853731504       -4.3988542168011895      0.9999999999895252
-1.9051994782283266       -3.726282049048582       0.9999999999880632
-1.882782994680232        -3.6627890934451606      0.9999999999881691
-1.4949541602424343       -4.347505468605594       0.9999999999896908
-1.468358684928766        -4.408785805961373       0.9999999999898551
-1.8371917051306428       -3.7117383674069533      0.9999999999882841
-1.8141221290194516       -3.6486166788130387      0.9999999999883996
-1.4260160507731348       -4.357032175225116       0.9999999999900305
-1.3988655506768901       -4.418050765536353       0.999999999990204
-1.7690996672918178       -3.6983028909488014      0.9999999999885255
-1.7452604090763641       -3.635454067094914       0.9999999999886507
-1.3570291040691569       -4.365922020470879       0.9999999999903874
-1.329291736793196        -4.426689530389301       0.9999999999905705
-1.7007977510548056       -3.6857761475059614      0.9999999999887871
-1.6762301986320525       -3.6232051885720433      0.9999999999889225
-1.2879682826010102       -4.374187631385392       0.9999999999907628
-1.259646260893626        -4.434736937936417       0.9999999999909548
-1.6322615452287599       -3.6740464021186097      0.9999999999890693
-1.6070569848232072       -3.611791056175915       0.9999999999892139
-1.2187925196727993       -4.381859022486492       0.9999999999911547
-1.1899375363013542       -4.44222310097744        0.9999999999913554
-1.5634836386702071       -3.662998071659334       0.9999999999893711
-1.5377612061855082       -3.601145890044386       0.9999999999895247
-1.149488247849642        -4.388979492950178       0.999999999991564
-1.120173635335419        -4.4491741760975065      0.9999999999917724
-1.4948734548735783       -3.6528395479539433      0.9999999999896912
-1.4683595151232256       -3.5912143086891426      0.9999999999898551
-1.0800742090218671       -4.39560483340808        0.9999999999919885
-1.0503613625251569       -4.455613077045836       0.9999999999922048
-1.4259523070487363       -3.6433517035807883      0.9999999999900305
-1.398865671447877        -3.581949250000721       0.9999999999902037
-1.0106013460854746       -4.401749649592738       0.9999999999924283
-0.9805055227331608       -4.461560002913484       0.9999999999926515
-1.3569566226324272       -3.6344217217488386      0.9999999999903878
-1.3292912601468567       -3.573310412520163       0.9999999999905702
-0.9411063297253875       -4.407420667687217       0.9999999999928821
-0.9106106284028587       -4.467032657744853       0.9999999999931125
-1.2878806527196516       -3.626118136743968       0.9999999999907629
-1.259645830845633        -3.565263014156631       0.9999999999909545
-0.8715870190778047       -4.4126207671945386      0.9999999999933492
-0.8406809848048328       -4.472046575362353       0.9999999999935859
-1.2186987919969168       -3.618394137760308       0.9999999999911552
-1.1899378094776774       -3.557776927283428       0.999999999991355
-0.8020279454779752       -4.417364965844188       0.9999999999938288
-0.7707207792806585       -4.476615385098682       0.999999999994072
-1.1494176653724062       -3.6112183049442685      0.999999999991564
-1.1201744657907706       -3.5508259035269916      0.9999999999917722
-0.7324244357070399       -4.421670534636655       0.9999999999943204
-0.7007340917320702       -4.480751035724351       0.9999999999945693
-1.0800372645366427       -3.6045402607265786      0.9999999999919886
-1.0503618808444177       -3.5443869688950826      0.9999999999922048
-0.6627914826402389       -4.425537970443223       0.9999999999948225
-0.6307242318134461       -4.484464013492455       0.9999999999950769
-1.010587948024417        -3.5983588207094623      0.9999999999924283
-0.9805057284058268       -3.538440013884538       0.9999999999926517
-0.593118037304864        -4.429008585083985       0.9999999999953347
-0.5606938743442755       -4.487763469129748       0.9999999999955943
-0.9410909753700292       -3.5926724600889046      0.9999999999928821
-0.9106107994842771       -3.5329673550798697      0.9999999999931125
-0.5233994882034159       -4.432064132229356       0.9999999999958563
-0.4906455327658475       -4.490657310899193       0.9999999999961199
-0.8715483206832964       -3.5874239218967974      0.9999999999933494
-0.8406814115949148       -3.5279534538603547      0.9999999999935859
-0.4536491519299807       -4.434724510940232       0.9999999999963859
-0.4205816106583731       -4.493152305885624       0.9999999999966529
-0.8019791224699938       -3.5826509911331517      0.999999999993829
-0.7707215867894267       -3.523384665105067       0.9999999999940717
-0.38388460590400003      -4.437015313322941       0.9999999999969225
-0.35050443858180236      -4.495254164416178       0.9999999999971929
-0.732362050754851        -3.578279383682301       0.9999999999943207
-0.7007347811046964       -3.5192490029076255      0.9999999999945693
-0.31411941651203434      -4.438929461413023       0.9999999999974651
-0.2804163057919909       -4.496967609507787       0.9999999999977384
-0.6627054075606291       -3.574378092886585       0.9999999999948231
-0.6307242723489463       -3.5155359885365036      0.9999999999950767
-0.24435122693715536      -4.440444835856404       0.999999999998013
-0.2103194881421371       -4.498296433227712       0.9999999999982881
-0.5930211000024523       -3.5709022589298276      0.9999999999953356
-0.5606930800031892       -3.5122364957641277      0.9999999999955941
-0.1745631081190603       -4.441577862355678       0.9999999999985646
-0.14021627324635386      -4.499243541446615       0.9999999999988418
-0.5233245067827172       -3.567803342053979       0.999999999995857
-0.4906439214991603       -3.509342627154429       0.9999999999961199
-0.10476403906057165      -4.442323512555305       0.9999999999991193
-0.07010898381948112      -4.499810988126407       0.9999999999993978
-0.4536017193211339       -3.5651032638594575      0.9999999999963863
-0.4205794338081997       -3.506847622737712       0.9999999999966529
-0.03495230969618291      -4.442697714630786       0.9999999999996761
0                         -4.5                     0.999999999999955
-0.38389063553213426      -3.562789594517385       0.9999999999969225
-0.35050205142878155      -3.504745770630138       0.9999999999971929
0.03485705776965345       -4.442694617569059       1.0000000000002343
0.07010865198998295       -4.4998109899159475      1.0000000000005131
-0.314140099941367        -3.560892757666424       0.999999999997465
-0.28041408022067293      -3.503032342211397       0.9999999999977383
0.1046419584165942        -4.442334299704139       1.0000000000007916
0.1402152646365509        -4.499243552337604       1.0000000000010707
-0.24438020153836826      -3.5593955283897407      0.9999999999980126
-0.21031777340308708      -3.5017035389464883      0.999999999998288
0.17442307673115282       -4.441588556141379       1.000000000001348
0.21031777340308505       -4.498296461053512       1.000000000001626
-0.1745867930530355       -3.5582912403672005      0.9999999999985639
-0.1402152646365517       -3.5007564476623965      0.9999999999988418
0.2442594802302633        -4.440447110108988       1.0000000000019023
0.2804140802206705        -4.496967657788603       1.000000000002179
-0.10476095713852206      -3.557561317905027       0.9999999999991193
-0.07010865198998335      -3.500189010084052       0.9999999999993978
0.3140573682797467        -4.438952057117052       1.0000000000024531
0.3505020514287777        -4.495254229369862       1.0000000000027278
-0.03492492172245255      -3.5571936697817534      0.9999999999996761
0                         -3.5                     0.9999999999999553
0.38382626866865377       -4.437076186041641       1.000000000003
0.4205794338081959        -4.4931523772622874      1.000000000003272
0.03490893730052789       -3.5571885643176357      1.0000000000002343
0.07010898381948037       -3.5001890118735925      1.0000000000005131
0.45357428323107335       -4.434801787128522       1.0000000000035405
0.4906439214991557        -4.490657372845571       1.0000000000038103
0.10473423716585313       -3.5575430855525596      1.000000000000792
0.1402162732463523        -3.5007564585533837      1.0000000000010705
0.5232995142298155        -4.4321164689171715      1.0000000000040756
0.5606930800031833        -4.487763504235873       1.0000000000043416
0.1745370490849402        -3.5582651713235816      1.0000000000013485
0.21031948814213472       -3.501703566772287       1.0000000000016258
0.5930041095896423        -4.429038256326947       1.0000000000046028
0.63072427234894          -4.484464011463497       1.0000000000048648
0.24431954504719874       -3.5593712397435073      1.0000000000019025
0.28041630579198773       -3.5030323904922134      1.0000000000021787
0.662685927089254         -4.425541246940631       1.000000000005122
0.7007347811046893        -4.4807509970923745      1.0000000000053795
0.3140872228390324        -3.560863783885074       1.0000000000024534
0.35050443858179847       -3.5047458355838206      1.0000000000027276
0.7322809807514332        -4.421651533688618       1.0000000000056308
0.7707215867894184        -4.476615334894932       1.0000000000058842
0.3838571206329883        -3.562742218124096       1.000000000003
0.4205816106583684        -3.506847694114376       1.0000000000032718
0.801899096640935         -4.417296354936967       1.0000000000061302
0.840681411594906         -4.472046546139645       1.0000000000063778
0.4536275736564617        -3.565007816757298       1.0000000000035412
0.490645532765842         -3.5093426891008055      1.0000000000038103
0.8714715183071454        -4.412527644337271       1.000000000006618
0.9106107994842676        -4.46703264492013        1.00000000000686
0.5233653779753304        -3.567661222952672       1.000000000004076
0.5606938743442694        -3.512236530870252       1.0000000000043416
0.9410150570970702        -4.407295741023867       1.0000000000070939
0.9805057284058163        -4.461559986115463       1.000000000007329
0.5930496947400318        -3.5707103045983284      1.0000000000046032
0.6307242318134395        -3.515535986507545       1.000000000004865
1.0105081837605385        -4.401596187327423       1.000000000007556
1.0503618808444062        -4.4556130311049165      1.0000000000077849
0.662716967461734         -3.574208223861783       1.000000000005122
0.7007340917320622        -3.5192489642756484      1.0000000000053795
1.0799271826482124        -4.395412515479234       1.0000000000080045
1.120174465790758         -4.44917409647301        1.000000000008226
0.73233808555171          -3.5781357485810577      1.0000000000056313
0.7707207792806495        -3.5233846149013166      1.000000000005884
1.149254651745315         -4.388724798599962       1.000000000008438
1.1899378094776638        -4.442223072716573       1.0000000000086526
0.8019152586489837        -3.5824956333036346      1.0000000000061304
0.8406809848048238        -3.527953424637646       1.0000000000063778
1.2185586556779564        -4.381557866960105       1.0000000000088562
1.2596458308456195        -4.4347369858433705      1.0000000000090628
0.8714589302267769        -3.5872941159799585      1.0000000000066178
0.9106106284028485        -3.5329673422551453      1.00000000000686
1.287762883227115         -4.373738246283143       1.0000000000092581
1.3292912601468425        -4.426689587479838       1.0000000000094562
0.9409751514388712        -3.5925501634561505      1.0000000000070932
0.9805055227331502        -3.538439997086515       1.0000000000073288
1.3569065004321323        -4.3654300130329595      1.000000000009643
1.3988656714478616        -4.41805074999928        1.0000000000098321
1.010463897652892         -3.598283557272469       1.0000000000075557
1.0503613625251453        -3.5443869229541622      1.0000000000077847
1.425963951683481         -4.356550202807341       1.00000000001001
1.4683595151232094        -4.40878569131086        1.00000000001019
1.0799146610590296        -3.604501737906425       1.0000000000080045
1.1201736353354068        -3.550825823902492       1.0000000000082263
1.4948932352731472        -4.3470750247703345      1.0000000000103588
1.5377612061854897        -4.398854109955617       1.0000000000105294
1.1493143904970293        -3.6112121183083725      1.0000000000084384
1.1899375363013416        -3.557776899022558       1.0000000000086522
1.5636428687836426        -4.336926275884736       1.0000000000106881
1.6070569848231886        -4.388208943824087       1.000000000010849
1.2186627926600369        -3.6184240910205343      1.000000000008857
1.2596462608936125        -3.5652630620635803      1.0000000000090625
1.6322108328137634        -4.326007890864668       1.0000000000109976
1.6762301986320336        -4.37679481142796        1.000000000011149
1.2879555172217525        -3.6261463564259713      1.0000000000092593
1.329291736793181         -3.5733104696106968      1.0000000000094562
1.7006265926136028        -4.314271526445089       1.0000000000112872
1.7452604090763444        -4.364545932905091       1.0000000000114284
1.3571455387753601        -3.6343889828399583      1.0000000000096438
1.3988655506768755        -3.581949234463646       1.0000000000098321
1.7688827329872492        -4.301700431557449       1.000000000011557
1.8141221290194312        -4.351383321186965       1.0000000000116873
1.426161967517287         -3.643194126192357       1.0000000000100109
1.4683586849287495        -3.5912141940386246      1.00000000001019
1.836831666773766         -4.288254640575687       1.000000000011805
1.882782994680211         -4.337210906554843       1.0000000000119253
1.4950179409586601        -3.6526769216950474      1.000000000010359
1.537760485373133         -3.6011457831988083      1.0000000000105294
1.9043768460001829        -4.2739826959074865      1.000000000012032
1.9512010421692862        -4.321910058639113       1.0000000000121414
1.5637304720083307        -3.662866465746076       1.0000000000106883
1.6070562432723356        -3.6117909381530455      1.0000000000108489
1.971521373083889         -4.258822754428938       1.000000000012237
2.019320510708785         -4.305331623058653       1.0000000000123361
1.6322970344555314        -3.673771488024888       1.0000000000109976
1.676229475420312         -3.623205064876601       1.0000000000111489
2.0382524584744757        -4.242436517074474       1.00000000001242
2.087052119903019         -4.2872875875674605      1.0000000000125087
1.700716294791632         -3.6854243723190616      1.0000000000112876
1.7452598179123924        -3.6354539582832506      1.0000000000114286
2.103250227383351         -4.226434585358771       1.0000000000125782
2.152116044375302         -4.268197489849922       1.0000000000126548
1.7690483552698668        -3.697961323335766       1.0000000000115572
1.8141213960772005        -3.6486165333292493      1.0000000000116873
2.165494117096065         -4.210115936802077       1.000000000012711
2.2128337834823943        -4.248476066261456       1.0000000000127738
1.837196453522678         -3.7112387328174545      1.000000000011806
1.8827825591441258        -3.6627889999514593      1.0000000000119251
2.223491640198872         -4.194117286046533       1.0000000000128175
2.2685274353240112        -4.228352109043941       1.0000000000128675
1.9048582115163406        -3.7253895627287563      1.000000000012033
1.9512003203689063        -3.6780897731539         1.0000000000121416
2.276068398370553         -4.1783145802386725      1.0000000000129006
2.3185720610459297        -4.208131837759548       1.0000000000129396
1.9719165800638778        -3.7405240597606357      1.0000000000122375
2.019320229925479         -3.694668305546919       1.0000000000123361
2.3230200185763215        -4.162618610573929       1.0000000000129636
2.3630938978266016        -4.187896675621264       1.0000000000129936
2.038162187399864         -3.7571522230384558      1.0000000000124194
2.0870514712256596        -3.712712231254892       1.0000000000125087
2.364740924650408         -4.146464629888611       1.0000000000130111
2.4024802029215078        -4.167597042713373       1.0000000000130338
2.103388495855351         -3.773399025649208       1.0000000000125784
2.1521158513662746        -3.7318024506046825      1.0000000000126548
2.4013424783188118        -4.1294233241384575      1.0000000000130458
2.437039825664949         -4.147168180009612       1.0000000000130629
2.1662032557083664        -3.7898418481188627      1.0000000000127118
2.2128331421019243        -3.751523714134995       1.0000000000127736
2.46699331491775          -4.126534257290338       1.0000000000130838
2.4334991343807086        -4.112295662689946       1.0000000000130715
2.223541835912701         -3.805230166266781       1.0000000000128175
2.2685269041643568        -3.771647688083413       1.0000000000128673
2.492457790876192         -4.105619528688912       1.0000000000130982
2.460934338674175         -4.09512637647632        1.0000000000130898
2.2754035966757287        -3.821919008984149       1.0000000000129
2.318571631684889         -3.7918679783479043      1.0000000000129392
2.5134296046116544        -4.084375632234338       1.0000000000131077
2.483594638445944         -4.077888425468197       1.0000000000131015
2.3232032997038488        -3.838631544029488       1.000000000012964
2.3630935560473496        -3.8121031591190198      1.0000000000129934
2.52978057670142          -4.062840073261768       1.0000000000131137
2.5019401596215225        -4.060244542398763       1.0000000000131095
2.3655704465714456        -3.8547621022777077      1.000000000013012
2.402479936245869         -3.8324028103140724      1.0000000000130336
2.541313165980392         -4.041235901282539       1.000000000013117
2.5159469350768107        -4.042144734578415       1.0000000000131146
2.402952795658697         -3.8708011938238878      1.0000000000130473
2.4370396231104343        -3.8528316910318576      1.0000000000130629
2.5479450275013176        -4.020069215899211       1.000000000013119
2.5255246578085835        -4.024814053478083       1.0000000000131168
2.43500681646266          -3.887137824212294       1.0000000000130722
2.4669931667590888        -3.8734656316525595      1.0000000000130838
2.55                      -4                       1.0000000000131195
2.530511603660206         -4.008021732413219       1.0000000000131184
2.462200473829605         -3.904278585193522       1.0000000000130898
2.492457688374134         -3.894380378312657       1.0000000000130982
2.5479450246722206        -3.979930770291639       1.000000000013119
2.530475474674917         -3.990885838108155       1.0000000000131184
2.4851275718439787        -3.921724933496125       1.0000000000131022
2.513429539636812         -3.91562429335171        1.0000000000131075
2.527067031013321         -3.9741787920220313      1.0000000000131173
2.5413131514380867        -3.9587640642606226      1.0000000000131173
2.52978054121489          -3.937159871813347       1.0000000000131137
2.5168632163330047        -3.9570942440236214      1.0000000000131146
2.504055013745308         -3.9393997058172894      1.0000000000131097
-2.5105416953943083       -4.028382329397578       0.9999999999870177
-2.514705061403191        -4.014260141968883       0.9999999999870165
-2.4959284648210716       -4.01856607802172        0.9999999999870203
-2.497477622590534        -4.03944360423116        0.9999999999870216
-2.505272168369508        -4.003072426512991       0.999999999987018
-2.491166950698493        -4.0039557428235         0.9999999999870213
-2.5192385228888083       -4.001519824720291       0.9999999999870152
-2.4787670885698674       -4.011497605657282       0.9999999999870252
-2.4756899490978332       -4.0313143647852145      0.9999999999870272
-2.4794925782922324       -4.055542235053474       0.9999999999870283
-2.481393186500903        -3.9963262174805663      0.9999999999870245
-2.468721209343157        -4.002490617367086       0.9999999999870287
-2.4963974961270345       -3.9915067230808154      0.9999999999870202
-2.5144208794538887       -3.9895175107630845      0.9999999999870163
-2.4618631503432753       -4.015897533705177       0.9999999999870317
-2.4573538842889056       -4.067124958526512       0.9999999999870383
-2.4551160146180973       -4.03161988915014        0.9999999999870355
-2.4611847244497533       -4.046633607677548       0.9999999999870341
-2.4542629181657922       -4.000054757485316       0.9999999999870345
-2.467639462759431        -3.9886466467825077      0.9999999999870292
-2.485666911507437        -3.9798599691722036      0.9999999999870236
-2.505336862198482        -3.9757705501985976      0.9999999999870185
-2.432065489443339        -4.07959403648016        0.999999999987053
-2.438791648508228        -4.018370525707139       0.9999999999870424
-2.4382898203050596       -4.0475620741285185      0.999999999987045
-2.4224512783451826       -4.006246875165511       0.9999999999870515
-2.4371387850207733       -3.9941330359835714      0.9999999999870431
-2.4540803528633752       -3.979750679043254       0.9999999999870353
-2.4722086651177553       -3.9692848598771437      0.9999999999870287
-2.4924177959584517       -3.961872933762492       0.9999999999870228
-2.404861030295912        -4.094310345176478       0.9999999999870727
-2.4068285032008196       -4.059727272614836       0.9999999999870655
-2.4113005058640637       -4.026651184201939       0.9999999999870592
-2.406448518368722        -4.004038301450553       0.9999999999870613
-2.4178659511132143       -3.9881304157357462      0.9999999999870542
-2.43598506397705         -3.971851730833744       0.9999999999870447
-2.455730315476548        -3.9581039561948606      0.999999999987036
-2.477773077634478        -3.9474528273435308      0.9999999999870289
-2.3689385743742397       -4.106807021486658       0.9999999999871033
-2.3742182143456043       -4.071365542805192       0.9999999999870915
-2.380247142433536        -4.038901025750392       0.9999999999870824
-2.3865192973187552       -4.012221008693616       0.9999999999870761
-2.3941055592023943       -3.9869420234559554      0.9999999999870707
-2.4110664873481626       -3.965570534016412       0.99999999998706
-2.433165119910336        -3.9476519162719055      0.9999999999870485
-2.4576208859897206       -3.9332186992103626      0.9999999999870383
-2.329821891617986        -4.119352272530854       0.9999999999871431
-2.337510538460078        -4.0806203080017855      0.9999999999871267
-2.3469386353942094       -4.048185257271587       0.9999999999871126
-2.355677698477762        -4.015255888915186       0.9999999999871022
-2.3663825422220404       -3.98586947594079        0.9999999999870929
-2.384151040711169        -3.959832335372791       0.9999999999870796
-2.4068029673217546       -3.937627163934575       0.9999999999870656
-2.43244504367639         -3.919017150323064       0.9999999999870531
-2.285281151181426        -4.131662437189609       0.999999999987197
-2.296836510894515        -4.089354347135069       0.9999999999871728
-2.311180576666494        -4.052310804031278       0.9999999999871502
-2.3266633689987453       -4.024114060360411       0.9999999999871312
-2.3258649052040523       -3.9891631941073054      0.9999999999871313
-2.350440694589101        -3.954979195614326       0.999999999987109
-2.376023543892387        -3.9281253284438007      0.9999999999870902
-2.4040137415622382       -3.9056203077500817      0.9999999999870733
-2.2351643521125326       -4.143713670460874       0.999999999987269
-2.2496600224140466       -4.097511708781572       0.9999999999872359
-2.26754359499636         -4.054694174388039       0.9999999999872041
-2.2915802458040675       -4.016906093019388       0.9999999999871708