% Model:              Circle_vs_rectangle_all_same.mph
% Version:            COMSOL 6.1.0.357
% Date:               Feb 27 2025, 16:31
% Dimension:          2
% Nodes:              9524
% Expressions:        1
% Description:        Dependent variable u
% Length unit:        m
% X                       Y                        u (1) @ t=10000
-2.681161927700883        -4.0589606822584         1.144317755063618
-2.668475581345401        -4.040459399241509       1.1443245659263026
-2.691901887154185        -4.038696273403257       1.1443491513024309
-2.665934835866432        -4.079174290495768       1.1442637526888328
-2.6552929255429816       -4.057092764962447       1.1442798827345344
-2.6772566369321606       -4.023796902175673       1.1443494673384302
-2.6980805000799295       -4.018850373849175       1.1443647078859742
-2.6464038921917354       -4.099129690065164       1.1441781729396139
-2.6377112778161638       -4.0747820847815746      1.1442049406506942
-2.6812596694621735       -4.007805880894289       1.1443597751454924
-2.7                      -4                       1.1443691699789171
-2.61816608424643         -4.091189929095029       1.1441022244905465
-2.6226903483511474       -4.118792411625774       1.144049616112413
-2.6980805026932484       -3.9811496389782666      1.1443647061740208
-2.680950228700373        -3.9919558902423047      1.14435943903167
-2.5927692190507696       -4.106432520729692       1.1439470727999252
-2.5948011424092265       -4.13820908091134        1.1438638021429932
-2.6919019005924834       -3.9613037586555264      1.1443491484220487
-2.676795322620767        -3.976382204023373       1.144349046775839
-2.5622090889737366       -4.121540494763022       1.143720451520405
-2.562631772809087        -4.15745297782504        1.1436029875407463
-2.6811619605001358       -3.9410393688906025      1.1443177518696028
-2.6677688878357326       -3.9603428442232884      1.1443242375964209
-2.5278813032593845       -4.1367684546187915      1.1434102655187044
-2.5259819097045737       -4.176598654491917       1.143245174378771
-2.665934895934137        -3.9208257788658263      1.144263748920157
-2.6553743882894527       -3.943910163815158       1.1442814493183284
-2.488993483256784        -4.151959126543665       1.1429896435481026
-2.484569441474868        -4.195711453228655       1.1427631505408444
-2.646403986965532        -3.900870396701587       1.1441781705349017
-2.6382327468731286       -3.9273079629003935      1.1442102935253204
-2.445040116790664        -4.1671755135841275      1.1424259239391903
-2.438039700682159        -4.2148437414988775      1.1421233425595076
-2.622690485341513        -3.881207692093871       1.1440496122590393
-2.6169676241808277       -3.910892101946549       1.1441018947722874
-2.3958347497924617       -4.182424743482688       1.1416836351075323
-2.385971407182911        -4.23403337404787        1.1412844666186999
-2.5948013296690036       -3.8617910396546153      1.1438638009121753
-2.5914287550244226       -3.8945998443862893      1.1439425616743295
-2.341341598441969        -4.197666629618151       1.1407247176202857
-2.3283639087333374       -4.253150350074957       1.1402056932769116
-2.56157397853078         -3.8784268999336406      1.1437160178794696
-2.562632019284538        -3.8425471597443113      1.143602989506436
-2.2818303846465144       -4.212910002530429       1.1395132688290401
-2.2659554761348617       -4.271878453901681       1.138859453132213
-2.527664422580565        -3.862692132292673       1.1434066541205594
-2.525982225488231        -3.823401500405864       1.1432451787255842
-2.2180041633258325       -4.228188413728271       1.1380236093775495
-2.1993215708324554       -4.290037166394161       1.1372198507480247
-2.488257362779792        -3.8476734115043234      1.1429806227657744
-2.484569838026631        -3.804288719413755       1.1427631560189826
-2.150985849645158        -4.243237874216797       1.1362495776628843
-2.1300314533204134       -4.307260451702755       1.1352957039290292
-2.444001043715169        -3.8325321375727266      1.142411647451704
-2.438040191042874        -3.785156449331036       1.1421233501161445
-2.0828062905030524       -4.258945526636612       1.1342199767471055
-2.060388978489642        -4.323136063517984       1.1331394938899144
-2.3947477428226884       -3.8173545756010228      1.1416663287831124
-2.385971059741902        -3.765966504478823       1.1412844604524846
-2.013729148618219        -4.273695087189544       1.1319447407995946
-1.9904877006585557       -4.337827660055733       1.130754636408147
-2.340614003094609        -3.80237243542125        1.1407119953934222
-2.328364339280914        -3.746849785727026       1.1402057011264033
-1.9442605087641631       -4.287613151496846       1.1294376544564886
-1.920373303537633        -4.35146988892505        1.1281444035860337
-2.2817789390071983       -3.7873824098189353      1.139513610029881
-2.2659554008678997       -3.7281215245856933      1.1388594513163242
-1.874677201662599        -4.300670757867546       1.126711167371966
-1.8500824902901145       -4.364170081682151       1.1253127910825387
-2.21782973804808         -3.771918787021871       1.1380200154972229
-2.199322192561607        -3.709962995283111       1.1372198664804833
-1.8050182037279345       -4.312835414409714       1.1237714673932546
-1.7796423342844643       -4.376015915247336       1.122264332236843
-2.151165089362713        -3.756974761228399       1.1362555230376792
-2.1300316212446626       -3.6927395882186027      1.1352957088340938
-1.7352350259137521       -4.324173420178089       1.1206209974307522
-1.709075094409708        -4.3870796681141595      1.1190041622900795
-2.082547394292001        -3.741281789491708       1.1342134217345874
-2.060389606333835        -3.6768640737686655      1.1331395140699645
-1.6652750457158811       -4.3347899872215345      1.1172615492053986
-1.63839855501297         -4.397421825656237       1.1155379425629162
-2.013590470877548        -3.7264888618080536      1.131941158286888
-1.9904880381423717       -3.6621724081356977      1.1307546479554567
-1.5951078719879277       -4.344728804704733       1.1136962175447918
-1.5676269064289317       -4.407093561026649       1.1118718198591415
-1.9444804034651924       -3.71266219346877        1.1294472827212785
-1.9203739361587921       -3.648530229611935       1.1281444274511705
-1.5247619472751603       -4.3540137614993375      1.1099314879605
-1.496773060618723        -4.416138364871144       1.108012481804961
-1.875076935381269        -3.699675799636586       1.1267290536955814
-1.8500829934729288       -3.635830005982644       1.1253128115027535
-1.4543071997439416       -4.36268022572603        1.1059768715388403
-1.425846637268876        -4.42459378501087        1.1039669963013197
-1.8053380258398337       -3.687519254118139       1.1237872313894453
-1.7796429407349077       -3.623984183184238       1.1222643590263348
-1.3839592000262133       -4.370850077083019       1.1018511526030046
-1.3548554380214122       -4.4324923281693795      1.0997428334913026
-1.7353026476777949       -3.6761513890377464      1.120626030044346
-1.7090757555564344       -3.612920431994411       1.1190041935349977
-1.3134404756603717       -4.378428212603475       1.0975464266105883
-1.2838067015111225       -4.439862194452082       1.0953478958021656
-1.6652985985969935       -3.665532102659858       1.117264619306068
-1.638399160015038        -3.602578259877473       1.1155379728381563
-1.2427865858581775       -4.385471357328602       1.093071601097601
-1.2127073336170935       -4.44672796562791        1.090790499244271
-1.5951293739615722       -3.6556326364720335      1.1136994692060436
-1.5676276632711994       -3.5929065389195993      1.111871859767529
-1.1720283355084529       -4.392018585365521       1.0884360897120615
-1.1415637351161283       -4.453111186745331       1.0860793297656097
-1.5248541591732452       -3.6463613209653563      1.109938677527374
-1.496773393001568        -3.583861676127486       1.1080124999075405
-1.10120070720944         -4.398111586240046       1.0836502091212745
-1.0703803546984838       -4.459030928017263       1.081223308336424
-1.4544462489428038       -3.637680205343035       1.1059868380847373
-1.4258462184807057       -3.575406166760382       1.103966971607826
-1.0303304302633651       -4.403777119328378       1.078724384880294
-0.9991610780851463       -4.464503995976842       1.0762316412892048
-1.3839047613905406       -3.629522650549177       1.1018500325538207
-1.354854850941287        -3.5675076087604087      1.0997427977580292
-0.9594354280613842       -4.4090189776345055      1.0736689967888482
-0.9279096091751382       -4.46954519910814        1.0711138140532936
-1.3132970496873049       -3.621924938044101       1.0975395266247814
-1.2838067138647105       -3.560137806784402       1.0953478965878334
-0.8885383321422483       -4.413842594024943       1.0684951132748342
-0.8566295232857608       -4.4741675927665385      1.0658795643867085
-1.242628956367295        -3.614829007187908       1.093063121845722
-1.2127079672777517       -3.5532720933626107      1.090790540610071
-0.8176262905656824       -4.418238343033897       1.0632115321023303
-0.7853243292761249       -4.478382681164463       1.0605388563853173
-1.1719060704014244       -3.608222827263114       1.0884292448570463
-1.1415643441076688       -3.5468888658708417      1.0860793707860859
-0.7466685510949042       -4.422199565076136       1.0578257398747588
-0.7139972909160208       -4.482200597902409       1.0551018361489966
-1.1011307433655175       -3.6020596565632803      1.0836462818424444
-1.0703806494263335       -3.5409690955511253      1.0812233287959407
-0.6756479846972153       -4.425745465470166       1.052346172004577
-0.6426508847776142       -4.485630268014409       1.0495787576862643
-1.030289848946731        -3.5963830037223885      1.0787222900517222
-0.9991611488314357       -3.535496009241856       1.0762316463648731
-0.6045845126869701       -4.428927730718017       1.046784171062485
-0.5712873064165772       -4.4886794870541085      1.0439799887562233
-0.9594136440311059       -3.5911313186793414      1.0736680963442804
-0.9279098363698427       -3.530454816288963       1.0711138306050734
-0.5335092431732992       -4.431777895185147       1.0411522952825383
-0.4999086390963663       -4.491355008726596       1.0383159940191842
-0.8885091556371462       -3.586307295082957       1.0684935915732956
-0.8566300960140326       -3.5258324427166325      1.0658796069278729
-0.46241690062324087      -4.434275317921057       1.0354605301283488
-0.4285168861505392       -4.49366262499922        1.0325973085572635
-0.8175728752387016       -3.5818975210697914      1.0632080517363116
-0.7853250821670782       -3.521617361221142       1.0605389133532053
-0.3912952269676382       -4.436411663898793       1.0297182731178
-0.3571139986288155       -4.495607232813985       1.026834511552695
-0.74659005042148         -3.5779078204222077      1.0578201289454496
-0.7139977406173389       -3.5177994249328317      1.0551018707595732
-0.32014649791641536      -4.438187134913047       1.023936080181861
-0.28570189934626544      -4.49719288915166        1.0210382002559601
-0.6755532939667791       -3.574308014072707       1.0523390001921784
-0.6426506470609834       -3.51436972119758        1.0495787391955251
-0.24900775928379307      -4.439604017653984       1.0181273622537208
-0.21428250424459117      -4.498422855839021       1.0152189644345184
-0.6044800640127044       -3.57107151868349        1.0467759534690553
-0.5712862741770627       -3.511320471562793       1.043979907311127
-0.17788708733025008      -4.440659250900936       1.0123031766284927
-0.14285774182259955      -4.499299635195634       1.009387361319791
-0.5334018324439859       -3.568211201660811       1.0411437192289148
-0.49990693297555844      -3.508644931746026       1.0383158579788514
-0.10677291973472641      -4.441359930700216       1.0064728933914757
-0.07142957128643643      -4.499824997369479       1.0035538910148962
-0.46229940883519616      -3.5657001181749344      1.0354510333690146
-0.4285147285154793       -3.5063373107723903      1.0325971350556253
-0.03564597971858019      -4.441714160045252       1.0006451704248873
0                         -4.5                     0.9977289682067711
-0.3911905676563685       -3.5635295329581393      1.029709684124571
-0.35711171707105077      -3.5043927108077404      1.0268343268625806
0.035498509347180685      -4.441726733895227       0.9948297731331478
0.07142927549212642       -4.499824998819124       0.9919228784269531
-0.3200811784234974       -3.561714870236717       1.0239306038255884
-0.2856998384784001       -3.502807070236818       1.0210380326299349
0.10665725905648223       -4.4413922041823675      0.9890370229705958
0.14285683056666812       -4.499299644136796       0.9861457657047491
-0.24896993546454402      -3.560252786869411       1.0181240914566538
-0.21428093654155156      -3.5015771210475997      1.015218836575241
0.17781366827373615       -4.440693046929504       0.9832781644312049
0.21428093654155156       -4.4984228789524         0.9804076229508966
-0.17785181523261037      -3.559150025100367       1.0123001166671861
-0.14285683056666812      -3.500700355863202       1.0093872869858638
0.2489589264745855        -4.439625828859522       0.9775636237357316
0.2856998384784001        -4.497192929763181       0.9747182786423941
-0.10672410667402131      -3.558413978979099       1.0064687709843405
-0.07142927549212642      -3.500175001180877       1.0035538670134816
0.3200557699687624        -4.438162925446695       0.9719058328647282
0.35711171707105077       -4.495607289192259       0.9690873715285563
-0.03559419479392431      -3.5580403176504816      1.00064088697124
0                         -3.5                     0.9977289683634618
0.39116986381283136       -4.436385960320837       0.9663090058471661
0.4285147285154793        -4.49366268922761        0.9635243283463186
0.035526168775918805      -3.5580236280321937      0.9948275590300782
0.07142957128643637       -3.5001750026305216      0.9919228545286135
0.4622660436040143        -4.434247724265204       0.9607849990747983
0.49990693297555844       -4.491355068253974       0.958038351386699
0.10663329365661654       -3.5583736896697427      0.9890390905264964
0.14285774182259958       -3.500700364804365       0.9861456922228079
0.533364727393169         -4.43175790322028        0.9553411597010389
0.5712862741770627        -4.488679528437207       0.9526384031229848
0.17774225463596063       -3.5590944812872833      0.9832841070187666
0.21428250424459094       -3.501577144160979       0.9804074974067661
0.6044481815375533        -4.428912859259333       0.949987520792866
0.6426506470609834        -4.485630278802419       0.9473331850608805
0.24886386416051023       -3.5601850669648756      0.9775714519297086
0.2857018993462652        -3.50280711084834        0.9747181151407078
0.6754918174164009        -4.425698952967739       0.9447342399497224
0.7139977406173389        -4.482200575067168       0.9421311346059422
0.3200050882266717        -3.56163854342952        0.9719101483775957
0.3571139986288154        -3.504392767186015       0.9690871925526356
0.7464719365264387        -4.4220945543402586      0.9395909542548585
0.7853250821670782        -4.478382638778858       0.9370404073956711
0.3911526358300135        -3.563444123569567       0.9663106690733595
0.42851688615053896       -3.5063373750007805      0.9635241612605633
0.817435392361491         -4.418075159450787       0.934561897467263
0.8566300960140326        -4.474167557283367       0.9320688599841809
0.46228370583845596       -3.565594066224009       0.9607839824350978
0.4999086390963661        -3.508644991273403       0.9580382211862744
0.8884014667489551        -4.413650530174746       0.9296533167942777
0.9279098363698427        -4.469545183711036       0.9272240559390011
0.5333925338741796        -3.5680947519628448      0.9553394164492142
0.5712873064165767        -3.511320512945892       0.9526383256186755
0.9593467936448583        -4.4088095121702375      0.9248740710422269
0.9991611488314357        -4.464503990758144       0.9225132421627741
0.6044762227809451        -3.5709661493982003      0.9499857675278092
0.6426508847776141        -3.5143697319855907      0.9473331675096651
1.030251367434047         -4.403565579363797       0.9202324390705433
1.0703806494263333        -4.459030904448875       0.9179433394028766
0.6755219292454931        -3.5742172220892106      0.944732296638703
0.7139972909160207        -3.51779940209759        0.9421311670590535
1.1010920810318587        -4.397889216830812       0.9157362520222178
1.1415643441076693        -4.453111134129158       0.9135209553496845
0.7465223927842183        -3.5778534097675307      0.9395875201794918
0.7853243292761243        -3.5216173188355366      0.9370404605835695
1.1718689438351542        -4.3917706982385125      0.911391518915552
1.2127079672777517        -4.446727906637389       0.9092523513511427
0.8175090146704762        -3.5818678725357547      0.9345569618833584
0.8566295232857603        -3.525832407233461       0.9320688995184024
1.242592447413866         -4.385216384676034       0.9072033969277068
1.2838067138647105        -4.439862193215597       0.9051434485163202
0.8884829486053143        -3.586277584374069       0.9296480493021001
0.9279096091751378        -3.53045480089186        0.9272240712735885
1.3132689322131095        -4.37814343692525        0.903176616738798
1.3548548509412874        -4.432492391239591       0.9011998374197566
0.9594407200160684        -3.5910871571374283      0.9248682786879155
0.999161078085146         -3.5354960040231567      0.922513246862263
1.3839056703237202        -4.370594832777013       0.899316203189775
1.425846218480706         -4.4245938332396175      0.8974267367449889
1.0303655817351836        -3.5962750725980204      0.9202257932390178
1.0703803546984831        -3.540969071982736       0.917943358117205
1.4544921069671408        -4.362534889490389       0.8956274638979326
1.4967733930015679        -4.416138323872513       0.893829025654903
1.1012434383256624        -3.60193937858689        0.9157276230248269
1.141563735116127         -3.546888813254669       0.9135209926287757
1.525018878684085         -4.353917507054284       0.8921151755794253
1.5676276632711994        -4.407093461080401       0.8904112261145157
1.1720136092762294        -3.607994392013442       0.9113839435107707
1.2127073336170926        -3.5532720343720903      0.9092523887022169
1.5953768818044667        -4.344829938530338       0.8887889253059704
1.6383991600150378        -4.397421740122527       0.8871774783272817
1.24272044587454          -3.614506098760311       0.9071973487109218
1.2838067015111219        -3.5601378055479183      0.905143449167677
1.6656041759366955        -4.335057374717334       0.8856489888758453
1.7090757555564335        -4.387079568005591       0.8841315697745066
1.313345570846911         -3.6215310603798794      0.9031739813600669
1.3548554380214108        -3.567507671830619       0.9011998053987146
1.7355328796848133        -4.324505657792733       0.8827045830915893
1.7796429407349077        -4.376015816815762       0.8812769085423574
1.3838513062156375        -3.629105563674004       0.8993205895326767
1.425846637268875         -3.575406214989129       0.8974267147899271
1.8052371140237777        -4.313175754183514       0.8799543021472563
1.8500829934729288        -4.364169994017356       0.8786165212117091
1.4542501998958641        -3.6372575784998156      0.8956407299492762
1.4967730606187224        -3.583861635128856       0.893829041821734
1.8746872466612465        -4.300934815149102       0.8774001468544048
1.9203739361587921        -4.351469770388065       0.8761530437122916
1.5245912816284564        -3.645994329676799       0.8921361168021847
1.5676269064289303        -3.592906438973351       0.8904112613920052
1.9439000179049108        -4.287758644524576       0.8750426448493652
1.9904880381423722        -4.3378275918643014      0.8738887096024491
1.5948926939279435        -3.65532154987976        0.8888100696495028
1.6383985550129685        -3.602578174343763       0.887177505032874
2.0130651883533197        -4.2736119773298675      0.8728772296697195
2.0603896063338354        -4.323135926231335       0.8718253338520586
1.66509915786858          -3.6652657946953915      0.8856688355080974
1.7090750944097068        -3.6129203318858396      0.8841315973431677
2.0821529948183737        -4.258508769780798       0.8709072372593631
2.1300316212446617        -4.307260411781398       0.8699642893181215
1.7351428987819828        -3.6758751459615167      0.8827181740032296
1.7796423342844634        -3.623984084752664       0.8812769323567932
2.1507120080494193        -4.24258083592523        0.869145774208867
2.1993221925616075        -4.290037004716889       0.8683071128924441
1.8050065395589234        -3.687222996399584       0.879960813263085
1.8500824902901125        -3.635829918317849       0.8786165397237361
2.2174484457829147        -4.227738022749802       0.8676253176271046
2.2659554008679           -4.271878475414306       0.8668976972872646
1.8746997787639434        -3.6994087167330307      0.8773979495901916
1.9203733035376314        -3.648530111074951       0.8761530652395014
2.281279960683174         -4.212634831101117       0.8663449994506133
2.3283643392809155        -4.253150214272974       0.865742276435998
1.9442406337438938        -3.71247516362383        0.8750306728452196
1.9904877006585548        -3.6621723399442665      0.8738887202317077
2.340886769073504         -4.197892491957364       0.865305085977592
2.3859710597419026        -4.234033495521178       0.8648176295704918
2.0135706312642205        -3.7264029888425063      0.8728625638336084
2.060388978489642         -3.676863936482015       0.8718253515140576
2.3958343883747966        -4.182406700969687       0.8644757117000629
2.4380401910428744        -4.214843550668963       0.8640993229597647
2.0824430984852245        -3.741185367161414       0.8709011335069562
2.1300314533204125        -3.692739548297245       0.8699642932413791
2.4457054014362534        -4.167641225462599       0.863834810737509
2.4845698380266312        -4.195711280586246       0.8635519193812048
2.1504418679902817        -3.7567606192066645      0.8691550281124664
2.199321570832454         -3.7099628336058386      0.868307126206802
2.4891555365691627        -4.153321450981684       0.8633610055900506
2.525982225488233         -4.176598499594135       0.8631397609006953
2.217642416867172         -3.7723480910726876      0.8676209883775847
2.26595547613486          -3.7281215460983193      0.8668976961047786
2.527897911687069         -4.1379385567627995      0.8630018159656644
2.562632019284538         -4.157452840255689       0.8628339506975417
2.281420843188188         -3.7875029542356997      0.8663419377595171
2.328363908733337         -3.7468496499250428      0.8657422842605677
2.562096973691229         -4.122057266081657       0.8627355365693575
2.594801329669004         -4.138208960345385       0.8626111193096212
2.341040083568144         -3.802486998263684       0.8653012851676257
2.3859714071829097        -3.7659666259521285      0.8648176253009079
2.591725487412777         -4.105717820310302       0.8625431772784927
2.622690485341514         -4.118792307906129       0.8624524053354409
2.395599322794454         -3.8179448783919714      0.8644774675310737
2.4380397006821584        -3.785156258501123       0.8640993301587594
2.6464039869655314        -4.099129603298413       0.8623426138254947
2.616988546178537         -4.0893410141699125      0.8624081136500955
2.4450755226260217        -3.832713498454855       0.8638404055442193
2.484569441474868         -3.8042885467713448      0.8635519241979251
2.665934895934137         -4.079174221134174       0.8622695357573354
2.6382987643102194        -4.073021472121444       0.8623155119834235
2.4890896776072005        -3.8475071396001215      0.8633590288318514
2.525981909704571         -3.823401345508082       0.8631397652234406
2.681161960500137         -4.058960631109396       0.8622234271607628
2.655922409306178         -4.056841097458774       0.8622542831832526
2.5277950760137204        -3.862742243641294       0.8630006542888594
2.5626317728090857        -3.84254702217496        0.8628339534881974
2.6919019005924834        -4.038696241344473       0.8621966180946679
2.667439943027127         -4.04091934881708        0.862219403122937
2.562255789833211         -3.8785406842449497      0.86273311744867
2.594801142409226         -3.8617909190886603      0.862611120752502
2.6980805026932484        -4.018850361021733       0.8621833372688564
2.6770050079096244        -4.023587991927927       0.8621964882748187
2.5922290703127864        -3.894533594370947       0.8625403314166765
2.6226903483511474        -3.8812075883742247      0.8624524056998726
2.7                       -4                       0.8621795263473601
2.681025807189482         -4.00774909267512        0.8621877255147384
2.6175550213667282        -3.910940824969163       0.862405613607072
2.646403892191736         -3.9008703099348363      0.862342614286684
2.6980805000799286        -3.9811496261508235      0.8621833361257613
2.6811375671219966        -3.9917408190088537      0.8621877217723902
2.638442648831111         -3.9268606443370437      0.862315316846875
2.665934835866431         -3.920825709504231       0.8622695379559143
2.6919018871541844        -3.961303726596743       0.8621966171053154
2.6777676415909255        -3.976107461236686       0.8621959107421048
2.6811619277008822        -3.9410393177415983      0.8622234234335237
2.6687596409415892        -3.95961311011691        0.862217172126437
2.6549296390835906        -3.9427386329858933      0.8622566521694868
-2.657644003531042        -4.024488528750065       1.1443174401243377
-2.665624248112219        -4.010904168344727       1.1443384912945496
-2.6470476992123917       -4.038166296979784       1.1442819593620415
-2.6488679754487503       -4.010938716495425       1.144302961568962
-2.655440759308405        -3.9992988120884845      1.1443200114745602
-2.6697343119707018       -3.9997147776739475      1.1443465296027264
-2.6386823064253306       -4.0227513270575805      1.1442697084934805
-2.635277068917337        -4.010656876523285       1.144263982613786
-2.631426231316618        -4.051013836017638       1.1442209766117093
-2.630742657897261        -4.033890618057721       1.144236322885932
-2.640543081955684        -3.9975340856148254      1.1442815130001838
-2.626322427691691        -4.003219974398978       1.144234489104071
-2.6520547395607          -3.9884268723328837      1.1443106161397711
-2.66539665427034         -3.988609136799935       1.144337969435682
-2.6138919203828532       -4.063558606110718       1.144136331260385
-2.6219701111021654       -4.018840506604132       1.144213918796319
-2.6145874994667353       -4.038681351183991       1.144170133313972
-2.610642090966045        -4.001994762393861       1.1441711171741245
-2.6242021341858446       -3.989315122312513       1.1442253633114199
-2.641923338905978        -3.9810272662863446      1.144281224889472
-2.6573643075204862       -3.97600055931177        1.14431714057387
-2.592573519938165        -4.076795764286819       1.1440116299047662
-2.5927520112865987       -4.048197830109398       1.1440557645101845
-2.597536726350757        -4.020688636613506       1.1441035750858906
-2.5932111359953414       -3.9969484929234196      1.1440861623924556
-2.6096091721706633       -3.9816115864136115      1.1441624584222658
-2.6272129951961736       -3.9710283147998346      1.144227649115049
-2.646863685267095        -3.963760082738166       1.1442832233063855
-2.5639761303947797       -4.088678475060565       1.1438154233029882
-2.5671913396041353       -4.058326055996467       1.1438904992982721
-2.5718393961218373       -4.030866095103516       1.1439500839669454
-2.57742060073637         -4.009677532384874       1.143995189530484
-2.5720574907202893       -3.9907867525263288      1.1439619191420327
-2.591397889570894        -3.974575869836856       1.1440687668917393
-2.6104938633290935       -3.9608898926182903      1.1441519672297422
-2.6315381938547446       -3.9502513479925976      1.1442229071755252
-2.531655827010679        -4.100357167597252       1.1435451464511308
-2.536713433492742        -4.06709313813005        1.1436533173860788
-2.544239062601209        -4.038342613169895       1.1437492211041789
-2.552458254493627        -4.009097684757599       1.14382779134328
-2.5520685681983215       -3.984027515882945       1.1438228625366593
-2.5690951371484134       -3.9672554318199835      1.1439309892043121
-2.590027537168004        -3.9507742485862         1.1440398713005633
-2.6131773920140806       -3.937097988080644       1.1441342768499523
-2.495788465684794        -4.111910562156538       1.1431846968262747
-2.5044512667091827       -4.075098390648035       1.1433523288533427
-2.5146701068129143       -4.04166421530713        1.143495447390955
-2.5270351720161246       -4.018978144903608       1.143621959528522
-2.5247899542335497       -3.9901493409965907      1.1436056689317333
-2.541611987370143        -3.9630171145021555      1.143729944296563