% Model:              Circle_vs_rectangle_all_same.mph
% Version:            COMSOL 6.1.0.357
% Date:               Feb 27 2025, 16:51
% Dimension:          2
% Nodes:              9524
% Expressions:        1
% Description:        Dependent variable u
% Length unit:        m
% X                       Y                        u (1) @ t=10000
-2.681161927700883        -4.0589606822584         1.14431775506361
-2.668475581345401        -4.040459399241509       1.144324565926295
-2.691901887154185        -4.038696273403257       1.1443491513024229
-2.665934835866432        -4.079174290495768       1.1442637526888249
-2.6552929255429816       -4.057092764962447       1.1442798827345266
-2.6772566369321606       -4.023796902175673       1.1443494673384222
-2.6980805000799295       -4.018850373849175       1.1443647078859664
-2.6464038921917354       -4.099129690065164       1.144178172939606
-2.6377112778161638       -4.0747820847815746      1.1442049406506862
-2.6812596694621735       -4.007805880894289       1.1443597751454844
-2.7                      -4                       1.1443691699789094
-2.61816608424643         -4.091189929095029       1.1441022244905383
-2.6226903483511474       -4.118792411625774       1.1440496161124047
-2.6980805026932484       -3.9811496389782666      1.144364706174013
-2.680950228700373        -3.9919558902423047      1.144359439031662
-2.5927692190507696       -4.106432520729692       1.143947072799918
-2.5948011424092265       -4.13820908091134        1.1438638021429854
-2.6919019005924834       -3.9613037586555264      1.1443491484220407
-2.676795322620767        -3.976382204023373       1.1443490467758313
-2.5622090889737366       -4.121540494763022       1.143720451520397
-2.562631772809087        -4.15745297782504        1.1436029875407387
-2.6811619605001358       -3.9410393688906025      1.144317751869595
-2.6677688878357326       -3.9603428442232884      1.1443242375964129
-2.5278813032593845       -4.1367684546187915      1.1434102655186964
-2.5259819097045737       -4.176598654491917       1.1432451743787633
-2.665934895934137        -3.9208257788658263      1.1442637489201495
-2.6553743882894527       -3.943910163815158       1.1442814493183207
-2.488993483256784        -4.151959126543665       1.1429896435480948
-2.484569441474868        -4.195711453228655       1.1427631505408369
-2.646403986965532        -3.900870396701587       1.1441781705348941
-2.6382327468731286       -3.9273079629003935      1.1442102935253124
-2.445040116790664        -4.1671755135841275      1.1424259239391825
-2.438039700682159        -4.2148437414988775      1.1421233425594997
-2.622690485341513        -3.881207692093871       1.1440496122590318
-2.6169676241808277       -3.910892101946549       1.14410189477228
-2.3958347497924617       -4.182424743482688       1.1416836351075246
-2.385971407182911        -4.23403337404787        1.141284466618692
-2.5948013296690036       -3.8617910396546153      1.1438638009121675
-2.5914287550244226       -3.8945998443862893      1.143942561674322
-2.341341598441969        -4.197666629618151       1.1407247176202784
-2.3283639087333374       -4.253150350074957       1.1402056932769038
-2.56157397853078         -3.8784268999336406      1.1437160178794619
-2.562632019284538        -3.8425471597443113      1.1436029895064281
-2.2818303846465144       -4.212910002530429       1.139513268829033
-2.2659554761348617       -4.271878453901681       1.1388594531322054
-2.527664422580565        -3.862692132292673       1.1434066541205519
-2.525982225488231        -3.823401500405864       1.1432451787255766
-2.2180041633258325       -4.228188413728271       1.1380236093775418
-2.1993215708324554       -4.290037166394161       1.1372198507480176
-2.488257362779792        -3.8476734115043234      1.1429806227657666
-2.484569838026631        -3.804288719413755       1.1427631560189748
-2.150985849645158        -4.243237874216797       1.136249577662877
-2.1300314533204134       -4.307260451702755       1.135295703929022
-2.444001043715169        -3.8325321375727266      1.1424116474516965
-2.438040191042874        -3.785156449331036       1.1421233501161365
-2.0828062905030524       -4.258945526636612       1.1342199767470984
-2.060388978489642        -4.323136063517984       1.1331394938899075
-2.3947477428226884       -3.8173545756010228      1.1416663287831048
-2.385971059741902        -3.765966504478823       1.141284460452477
-2.013729148618219        -4.273695087189544       1.1319447407995875
-1.9904877006585557       -4.337827660055733       1.1307546364081402
-2.340614003094609        -3.80237243542125        1.1407119953934144
-2.328364339280914        -3.746849785727026       1.1402057011263955
-1.9442605087641631       -4.287613151496846       1.1294376544564815
-1.920373303537633        -4.35146988892505        1.1281444035860266
-2.2817789390071983       -3.7873824098189353      1.1395136100298735
-2.2659554008678997       -3.7281215245856933      1.1388594513163166
-1.874677201662599        -4.300670757867546       1.1267111673719592
-1.8500824902901145       -4.364170081682151       1.1253127910825318
-2.21782973804808         -3.771918787021871       1.1380200154972153
-2.199322192561607        -3.709962995283111       1.137219866480476
-1.8050182037279345       -4.312835414409714       1.123771467393248
-1.7796423342844643       -4.376015915247336       1.1222643322368366
-2.151165089362713        -3.756974761228399       1.1362555230376719
-2.1300316212446626       -3.6927395882186027      1.1352957088340865
-1.7352350259137521       -4.324173420178089       1.1206209974307464
-1.709075094409708        -4.3870796681141595      1.1190041622900733
-2.082547394292001        -3.741281789491708       1.1342134217345803
-2.060389606333835        -3.6768640737686655      1.1331395140699574
-1.6652750457158811       -4.3347899872215345      1.1172615492053926
-1.63839855501297         -4.397421825656237       1.1155379425629102
-2.013590470877548        -3.7264888618080536      1.1319411582868808
-1.9904880381423717       -3.6621724081356977      1.1307546479554498
-1.5951078719879277       -4.344728804704733       1.1136962175447858
-1.5676269064289317       -4.407093561026649       1.1118718198591355
-1.9444804034651924       -3.71266219346877        1.1294472827212714
-1.9203739361587921       -3.648530229611935       1.1281444274511636
-1.5247619472751603       -4.3540137614993375      1.1099314879604945
-1.496773060618723        -4.416138364871144       1.1080124818049555
-1.875076935381269        -3.699675799636586       1.1267290536955745
-1.8500829934729288       -3.635830005982644       1.125312811502747
-1.4543071997439416       -4.36268022572603        1.1059768715388347
-1.425846637268876        -4.42459378501087        1.1039669963013143
-1.8053380258398337       -3.687519254118139       1.123787231389439
-1.7796429407349077       -3.623984183184238       1.1222643590263286
-1.3839592000262133       -4.370850077083019       1.1018511526029993
-1.3548554380214122       -4.4324923281693795      1.0997428334912973
-1.7353026476777949       -3.6761513890377464      1.1206260300443398
-1.7090757555564344       -3.612920431994411       1.1190041935349915
-1.3134404756603717       -4.378428212603475       1.0975464266105837
-1.2838067015111225       -4.439862194452082       1.095347895802161
-1.6652985985969935       -3.665532102659858       1.1172646193060614
-1.638399160015038        -3.602578259877473       1.11553797283815
-1.2427865858581775       -4.385471357328602       1.093071601097596
-1.2127073336170935       -4.44672796562791        1.0907904992442659
-1.5951293739615722       -3.6556326364720335      1.113699469206038
-1.5676276632711994       -3.5929065389195993      1.1118718597675235
-1.1720283355084529       -4.392018585365521       1.0884360897120564
-1.1415637351161283       -4.453111186745331       1.086079329765605
-1.5248541591732452       -3.6463613209653563      1.1099386775273683
-1.496773393001568        -3.583861676127486       1.108012499907535
-1.10120070720944         -4.398111586240046       1.08365020912127
-1.0703803546984838       -4.459030928017263       1.0812233083364196
-1.4544462489428038       -3.637680205343035       1.1059868380847317
-1.4258462184807057       -3.575406166760382       1.1039669716078202
-1.0303304302633651       -4.403777119328378       1.0787243848802903
-0.9991610780851463       -4.464503995976842       1.0762316412892006
-1.3839047613905406       -3.629522650549177       1.1018500325538154
-1.354854850941287        -3.5675076087604087      1.0997427977580243
-0.9594354280613842       -4.4090189776345055      1.0736689967888446
-0.9279096091751382       -4.46954519910814        1.07111381405329
-1.3132970496873049       -3.621924938044101       1.0975395266247767
-1.2838067138647105       -3.560137806784402       1.0953478965878287
-0.8885383321422483       -4.413842594024943       1.0684951132748308
-0.8566295232857608       -4.4741675927665385      1.0658795643867052
-1.242628956367295        -3.614829007187908       1.0930631218457167
-1.2127079672777517       -3.5532720933626107      1.0907905406100664
-0.8176262905656824       -4.418238343033897       1.0632115321023272
-0.7853243292761249       -4.478382681164463       1.0605388563853142
-1.1719060704014244       -3.608222827263114       1.0884292448570416
-1.1415643441076688       -3.5468888658708417      1.0860793707860814
-0.7466685510949042       -4.422199565076136       1.0578257398747557
-0.7139972909160208       -4.482200597902409       1.0551018361489939
-1.1011307433655175       -3.6020596565632803      1.0836462818424402
-1.0703806494263335       -3.5409690955511253      1.0812233287959367
-0.6756479846972153       -4.425745465470166       1.0523461720045744
-0.6426508847776142       -4.485630268014409       1.049578757686262
-1.030289848946731        -3.5963830037223885      1.0787222900517184
-0.9991611488314357       -3.535496009241856       1.0762316463648693
-0.6045845126869701       -4.428927730718017       1.0467841710624828
-0.5712873064165772       -4.4886794870541085      1.0439799887562211
-0.9594136440311059       -3.5911313186793414      1.0736680963442764
-0.9279098363698427       -3.530454816288963       1.0711138306050698
-0.5335092431732992       -4.431777895185147       1.0411522952825363
-0.4999086390963663       -4.491355008726596       1.0383159940191824
-0.8885091556371462       -3.586307295082957       1.068493591573292
-0.8566300960140326       -3.5258324427166325      1.0658796069278698
-0.46241690062324087      -4.434275317921057       1.035460530128347
-0.4285168861505392       -4.49366262499922        1.0325973085572617
-0.8175728752387016       -3.5818975210697914      1.0632080517363087
-0.7853250821670782       -3.521617361221142       1.0605389133532024
-0.3912952269676382       -4.436411663898793       1.0297182731177987
-0.3571139986288155       -4.495607232813985       1.0268345115526938
-0.74659005042148         -3.5779078204222077      1.0578201289454474
-0.7139977406173389       -3.5177994249328317      1.0551018707595705
-0.32014649791641536      -4.438187134913047       1.0239360801818602
-0.28570189934626544      -4.49719288915166        1.021038200255959
-0.6755532939667791       -3.574308014072707       1.0523390001921753
-0.6426506470609834       -3.51436972119758        1.0495787391955227
-0.24900775928379307      -4.439604017653984       1.0181273622537201
-0.21428250424459117      -4.498422855839021       1.015218964434518
-0.6044800640127044       -3.57107151868349        1.046775953469053
-0.5712862741770627       -3.511320471562793       1.043979907311125
-0.17788708733025008      -4.440659250900936       1.0123031766284925
-0.14285774182259955      -4.499299635195634       1.0093873613197908
-0.5334018324439859       -3.568211201660811       1.041143719228913
-0.49990693297555844      -3.508644931746026       1.0383158579788496
-0.10677291973472641      -4.441359930700216       1.0064728933914757
-0.07142957128643643      -4.499824997369479       1.0035538910148964
-0.46229940883519616      -3.5657001181749344      1.0354510333690128
-0.4285147285154793       -3.5063373107723903      1.0325971350556238
-0.03564597971858019      -4.441714160045252       1.0006451704248873
0                         -4.5                     0.9977289682067713
-0.3911905676563685       -3.5635295329581393      1.0297096841245699
-0.35711171707105077      -3.5043927108077404      1.0268343268625792
0.035498509347180685      -4.441726733895227       0.994829773133148
0.07142927549212642       -4.499824998819124       0.9919228784269537
-0.3200811784234974       -3.561714870236717       1.0239306038255875
-0.2856998384784001       -3.502807070236818       1.021038032629934
0.10665725905648223       -4.4413922041823675      0.9890370229705966
0.14285683056666812       -4.499299644136796       0.98614576570475
-0.24896993546454402      -3.560252786869411       1.0181240914566532
-0.21428093654155156      -3.5015771210475997      1.0152188365752406
0.17781366827373615       -4.440693046929504       0.9832781644312059
0.21428093654155156       -4.4984228789524         0.9804076229508979
-0.17785181523261037      -3.559150025100367       1.012300116667186
-0.14285683056666812      -3.500700355863202       1.0093872869858633
0.2489589264745855        -4.439625828859522       0.9775636237357331
0.2856998384784001        -4.497192929763181       0.9747182786423957
-0.10672410667402131      -3.558413978979099       1.0064687709843405
-0.07142927549212642      -3.500175001180877       1.0035538670134816
0.3200557699687624        -4.438162925446695       0.9719058328647298
0.35711171707105077       -4.495607289192259       0.9690873715285582
-0.03559419479392431      -3.5580403176504816      1.00064088697124
0                         -3.5                     0.9977289683634621
0.39116986381283136       -4.436385960320837       0.9663090058471681
0.4285147285154793        -4.49366268922761        0.963524328346321
0.035526168775918805      -3.5580236280321937      0.9948275590300789
0.07142957128643637       -3.5001750026305216      0.9919228545286143
0.4622660436040143        -4.434247724265204       0.9607849990748004
0.49990693297555844       -4.491355068253974       0.9580383513867013
0.10663329365661654       -3.5583736896697427      0.9890390905264971
0.14285774182259958       -3.500700364804365       0.9861456922228088
0.533364727393169         -4.43175790322028        0.9553411597010414
0.5712862741770627        -4.488679528437207       0.9526384031229874
0.17774225463596063       -3.5590944812872833      0.9832841070187676
0.21428250424459094       -3.501577144160979       0.9804074974067675
0.6044481815375533        -4.428912859259333       0.9499875207928686
0.6426506470609834        -4.485630278802419       0.9473331850608834
0.24886386416051023       -3.5601850669648756      0.97757145192971
0.2857018993462652        -3.50280711084834        0.9747181151407095
0.6754918174164009        -4.425698952967739       0.9447342399497253
0.7139977406173389        -4.482200575067168       0.9421311346059452
0.3200050882266717        -3.56163854342952        0.9719101483775975
0.3571139986288154        -3.504392767186015       0.9690871925526375
0.7464719365264387        -4.4220945543402586      0.9395909542548617
0.7853250821670782        -4.478382638778858       0.9370404073956745
0.3911526358300135        -3.563444123569567       0.9663106690733617
0.42851688615053896       -3.5063373750007805      0.9635241612605655
0.817435392361491         -4.418075159450787       0.9345618974672664
0.8566300960140326        -4.474167557283367       0.9320688599841844
0.46228370583845596       -3.565594066224009       0.9607839824351
0.4999086390963661        -3.508644991273403       0.9580382211862767
0.8884014667489551        -4.413650530174746       0.9296533167942812
0.9279098363698427        -4.469545183711036       0.9272240559390048
0.5333925338741796        -3.5680947519628448      0.9553394164492167
0.5712873064165767        -3.511320512945892       0.9526383256186781
0.9593467936448583        -4.4088095121702375      0.9248740710422308
0.9991611488314357        -4.464503990758144       0.9225132421627779
0.6044762227809451        -3.5709661493982003      0.9499857675278119
0.6426508847776141        -3.5143697319855907      0.9473331675096682
1.030251367434047         -4.403565579363797       0.9202324390705474
1.0703806494263333        -4.459030904448875       0.9179433394028811
0.6755219292454931        -3.5742172220892106      0.9447322966387058
0.7139972909160207        -3.51779940209759        0.9421311670590568
1.1010920810318587        -4.397889216830812       0.9157362520222222
1.1415643441076693        -4.453111134129158       0.9135209553496889
0.7465223927842183        -3.5778534097675307      0.9395875201794951
0.7853243292761243        -3.5216173188355366      0.937040460583573
1.1718689438351542        -4.3917706982385125      0.9113915189155568
1.2127079672777517        -4.446727906637389       0.9092523513511472
0.8175090146704762        -3.5818678725357547      0.9345569618833619
0.8566295232857603        -3.525832407233461       0.9320688995184062
1.242592447413866         -4.385216384676034       0.9072033969277117
1.2838067138647105        -4.439862193215597       0.9051434485163251
0.8884829486053143        -3.586277584374069       0.9296480493021039
0.9279096091751378        -3.53045480089186        0.9272240712735925
1.3132689322131095        -4.37814343692525        0.9031766167388028
1.3548548509412874        -4.432492391239591       0.9011998374197617
0.9594407200160684        -3.5910871571374283      0.9248682786879198
0.999161078085146         -3.5354960040231567      0.9225132468622671
1.3839056703237202        -4.370594832777013       0.8993162031897802
1.425846218480706         -4.4245938332396175      0.8974267367449942
1.0303655817351836        -3.5962750725980204      0.9202257932390218
1.0703803546984831        -3.540969071982736       0.9179433581172094
1.4544921069671408        -4.362534889490389       0.8956274638979379
1.4967733930015679        -4.416138323872513       0.8938290256549085
1.1012434383256624        -3.60193937858689        0.9157276230248313
1.141563735116127         -3.546888813254669       0.9135209926287802
1.525018878684085         -4.353917507054284       0.8921151755794311
1.5676276632711994        -4.407093461080401       0.8904112261145215
1.1720136092762294        -3.607994392013442       0.9113839435107752
1.2127073336170926        -3.5532720343720903      0.9092523887022216
1.5953768818044667        -4.344829938530338       0.8887889253059763
1.6383991600150378        -4.397421740122527       0.8871774783272878
1.24272044587454          -3.614506098760311       0.9071973487109267
1.2838067015111219        -3.5601378055479183      0.905143449167682
1.6656041759366955        -4.335057374717334       0.8856489888758512
1.7090757555564335        -4.387079568005591       0.8841315697745126
1.313345570846911         -3.6215310603798794      0.903173981360072
1.3548554380214108        -3.567507671830619       0.9011998053987198
1.7355328796848133        -4.324505657792733       0.8827045830915953
1.7796429407349077        -4.376015816815762       0.8812769085423634
1.3838513062156375        -3.629105563674004       0.8993205895326818
1.425846637268875         -3.575406214989129       0.8974267147899324
1.8052371140237777        -4.313175754183514       0.8799543021472624
1.8500829934729288        -4.364169994017356       0.8786165212117152
1.4542501998958641        -3.6372575784998156      0.8956407299492817
1.4967730606187224        -3.583861635128856       0.8938290418217395
1.8746872466612465        -4.300934815149102       0.8774001468544111
1.9203739361587921        -4.351469770388065       0.8761530437122981
1.5245912816284564        -3.645994329676799       0.8921361168021905
1.5676269064289303        -3.592906438973351       0.8904112613920109
1.9439000179049108        -4.287758644524576       0.8750426448493717
1.9904880381423722        -4.3378275918643014      0.8738887096024556
1.5948926939279435        -3.65532154987976        0.8888100696495086
1.6383985550129685        -3.602578174343763       0.8871775050328797
2.0130651883533197        -4.2736119773298675      0.8728772296697259
2.0603896063338354        -4.323135926231335       0.8718253338520651
1.66509915786858          -3.6652657946953915      0.8856688355081034
1.7090750944097068        -3.6129203318858396      0.8841315973431737
2.0821529948183737        -4.258508769780798       0.8709072372593697
2.1300316212446617        -4.307260411781398       0.8699642893181284
1.7351428987819828        -3.6758751459615167      0.8827181740032355
1.7796423342844634        -3.623984084752664       0.8812769323567992
2.1507120080494193        -4.24258083592523        0.8691457742088736
2.1993221925616075        -4.290037004716889       0.868307112892451
1.8050065395589234        -3.687222996399584       0.8799608132630911
1.8500824902901125        -3.635829918317849       0.8786165397237423
2.2174484457829147        -4.227738022749802       0.8676253176271115
2.2659554008679           -4.271878475414306       0.8668976972872716
1.8746997787639434        -3.6994087167330307      0.8773979495901977
1.9203733035376314        -3.648530111074951       0.8761530652395079
2.281279960683174         -4.212634831101117       0.8663449994506199
2.3283643392809155        -4.253150214272974       0.8657422764360051
1.9442406337438938        -3.71247516362383        0.8750306728452258
1.9904877006585548        -3.6621723399442665      0.8738887202317142
2.340886769073504         -4.197892491957364       0.8653050859775987
2.3859710597419026        -4.234033495521178       0.8648176295704989
2.0135706312642205        -3.7264029888425063      0.8728625638336148
2.060388978489642         -3.676863936482015       0.871825351514064
2.3958343883747966        -4.182406700969687       0.86447571170007
2.4380401910428744        -4.214843550668963       0.8640993229597717
2.0824430984852245        -3.741185367161414       0.8709011335069627
2.1300314533204125        -3.692739548297245       0.8699642932413858
2.4457054014362534        -4.167641225462599       0.8638348107375161
2.4845698380266312        -4.195711280586246       0.8635519193812118
2.1504418679902817        -3.7567606192066645      0.8691550281124732
2.199321570832454         -3.7099628336058386      0.8683071262068088
2.4891555365691627        -4.153321450981684       0.8633610055900576
2.525982225488233         -4.176598499594135       0.8631397609007023
2.217642416867172         -3.7723480910726876      0.8676209883775915
2.26595547613486          -3.7281215460983193      0.8668976961047855
2.527897911687069         -4.1379385567627995      0.8630018159656713
2.562632019284538         -4.157452840255689       0.8628339506975485
2.281420843188188         -3.7875029542356997      0.8663419377595237
2.328363908733337         -3.7468496499250428      0.8657422842605746
2.562096973691229         -4.122057266081657       0.8627355365693646
2.594801329669004         -4.138208960345385       0.8626111193096283
2.341040083568144         -3.802486998263684       0.8653012851676324
2.3859714071829097        -3.7659666259521285      0.8648176253009147
2.591725487412777         -4.105717820310302       0.8625431772784998
2.622690485341514         -4.118792307906129       0.8624524053354481
2.395599322794454         -3.8179448783919714      0.8644774675310806
2.4380397006821584        -3.785156258501123       0.8640993301587664
2.6464039869655314        -4.099129603298413       0.8623426138255018
2.616988546178537         -4.0893410141699125      0.8624081136501024
2.4450755226260217        -3.832713498454855       0.8638404055442263
2.484569441474868         -3.8042885467713448      0.8635519241979321
2.665934895934137         -4.079174221134174       0.8622695357573426
2.6382987643102194        -4.073021472121444       0.8623155119834306
2.4890896776072005        -3.8475071396001215      0.8633590288318586
2.525981909704571         -3.823401345508082       0.8631397652234475
2.681161960500137         -4.058960631109396       0.86222342716077
2.655922409306178         -4.056841097458774       0.8622542831832597
2.5277950760137204        -3.862742243641294       0.8630006542888663
2.5626317728090857        -3.84254702217496        0.8628339534882042
2.6919019005924834        -4.038696241344473       0.8621966180946748
2.667439943027127         -4.04091934881708        0.8622194031229441
2.562255789833211         -3.8785406842449497      0.8627331174486773
2.594801142409226         -3.8617909190886603      0.862611120752509
2.6980805026932484        -4.018850361021733       0.8621833372688638
2.6770050079096244        -4.023587991927927       0.8621964882748258
2.5922290703127864        -3.894533594370947       0.8625403314166836
2.6226903483511474        -3.8812075883742247      0.8624524056998796
2.7                       -4                       0.8621795263473672
2.681025807189482         -4.00774909267512        0.8621877255147453
2.6175550213667282        -3.910940824969163       0.8624056136070791
2.646403892191736         -3.9008703099348363      0.8623426142866911
2.6980805000799286        -3.9811496261508235      0.8621833361257684
2.6811375671219966        -3.9917408190088537      0.8621877217723973
2.638442648831111         -3.9268606443370437      0.8623153168468821
2.665934835866431         -3.920825709504231       0.8622695379559212
2.6919018871541844        -3.961303726596743       0.8621966171053222
2.6777676415909255        -3.976107461236686       0.8621959107421119
2.6811619277008822        -3.9410393177415983      0.8622234234335306
2.6687596409415892        -3.95961311011691        0.8622171721264441
2.6549296390835906        -3.9427386329858933      0.8622566521694938
-2.657644003531042        -4.024488528750065       1.14431744012433
-2.665624248112219        -4.010904168344727       1.144338491294542
-2.6470476992123917       -4.038166296979784       1.1442819593620335
-2.6488679754487503       -4.010938716495425       1.1443029615689542
-2.655440759308405        -3.9992988120884845      1.1443200114745518
-2.6697343119707018       -3.9997147776739475      1.1443465296027184
-2.6386823064253306       -4.0227513270575805      1.144269708493473
-2.635277068917337        -4.010656876523285       1.144263982613778
-2.631426231316618        -4.051013836017638       1.1442209766117013
-2.630742657897261        -4.033890618057721       1.144236322885924
-2.640543081955684        -3.9975340856148254      1.1442815130001758
-2.626322427691691        -4.003219974398978       1.1442344891040632
-2.6520547395607          -3.9884268723328837      1.1443106161397634
-2.66539665427034         -3.988609136799935       1.1443379694356741
-2.6138919203828532       -4.063558606110718       1.144136331260377
-2.6219701111021654       -4.018840506604132       1.144213918796311
-2.6145874994667353       -4.038681351183991       1.1441701333139642
-2.610642090966045        -4.001994762393861       1.144171117174116
-2.6242021341858446       -3.989315122312513       1.144225363311412
-2.641923338905978        -3.9810272662863446      1.1442812248894645
-2.6573643075204862       -3.97600055931177        1.144317140573862
-2.592573519938165        -4.076795764286819       1.1440116299047585
-2.5927520112865987       -4.048197830109398       1.144055764510176
-2.597536726350757        -4.020688636613506       1.1441035750858826
-2.5932111359953414       -3.9969484929234196      1.1440861623924479
-2.6096091721706633       -3.9816115864136115      1.1441624584222583
-2.6272129951961736       -3.9710283147998346      1.1442276491150416
-2.646863685267095        -3.963760082738166       1.1442832233063778
-2.5639761303947797       -4.088678475060565       1.1438154233029805
-2.5671913396041353       -4.058326055996467       1.1438904992982641
-2.5718393961218373       -4.030866095103516       1.1439500839669376
-2.57742060073637         -4.009677532384874       1.1439951895304763
-2.5720574907202893       -3.9907867525263288      1.1439619191420247
-2.591397889570894        -3.974575869836856       1.1440687668917315
-2.6104938633290935       -3.9608898926182903      1.1441519672297342
-2.6315381938547446       -3.9502513479925976      1.144222907175518
-2.531655827010679        -4.100357167597252       1.143545146451123
-2.536713433492742        -4.06709313813005        1.1436533173860708
-2.544239062601209        -4.038342613169895       1.1437492211041709
-2.552458254493627        -4.009097684757599       1.143827791343272
-2.5520685681983215       -3.984027515882945       1.1438228625366516
-2.5690951371484134       -3.9672554318199835      1.1439309892043041
-2.590027537168004        -3.9507742485862         1.1440398713005557
-2.6131773920140806       -3.937097988080644       1.1441342768499447
-2.495788465684794        -4.111910562156538       1.1431846968262669
-2.5044512667091827       -4.075098390648035       1.1433523288533347
-2.5146701068129143       -4.04166421530713        1.1434954473909473
-2.5270351720161246       -4.018978144903608       1.143621959528514
-2.5247899542335497       -3.9901493409965907      1.1436056689317253
-2.541611987370143        -3.9630171145021555      1.1437299442965552